                         Program Version 5.0.3 -  RELEASE  -
|  1> ! XTB2 opt numfreq
|  2> * XYZ 0 1
|  3> O -1.4049 0.0122 0.0000
|  4> C 0.0000 0.0000 0.0000
|  5> O 1.4049 -0.0122 0.0000
|  6> *
|  7>
|  8>                          ****END OF INPUT****
FINAL SINGLE POINT ENERGY       -10.136043246910
FINAL SINGLE POINT ENERGY       -10.238283535320
FINAL SINGLE POINT ENERGY       -10.302995148270
FINAL SINGLE POINT ENERGY       -10.305786566300
FINAL SINGLE POINT ENERGY       -10.308413003220
FINAL SINGLE POINT ENERGY       -10.308452024620
FINAL SINGLE POINT ENERGY       -10.308452289140
                    ***********************HURRAY********************

CARTESIAN COORDINATES (ANGSTROEM)
---------------------------------
  O    -1.143608    0.009931    0.000000
  C    -0.000000   -0.000000   -0.000000
  O     1.143608   -0.009931    0.000000

FINAL SINGLE POINT ENERGY       -10.308452289170

VIBRATIONAL FREQUENCIES
-----------------------

Scaling factor for frequencies =  1.000000000 (already applied!)

   0:         0.00 cm**-1
   1:         0.00 cm**-1
   2:         0.00 cm**-1
   3:         0.00 cm**-1
   4:         0.00 cm**-1
   5:       521.79 cm**-1
   6:       600.50 cm**-1
   7:      1424.77 cm**-1
   8:      2593.16 cm**-1

IR SPECTRUM
-----------

 Mode   freq       eps      Int      T**2         TX        TY        TZ
       cm**-1   L/(mol*cm) km/mol    a.u.
----------------------------------------------------------------------------
  5:    521.79   0.014137   71.44  0.008455  (-0.000000  0.000000  0.091952)
  6:    600.50   0.014152   71.52  0.007354  ( 0.002843  0.085711 -0.000000)
  7:   1424.77   0.000000    0.00  0.000000  ( 0.000000  0.000000  0.000000)
  8:   2593.16   0.206094  1041.51  0.024802  (-0.157485  0.000358 -0.000000)

--------------------------
THERMOCHEMISTRY AT 298.15K
--------------------------

Temperature         ... 298.15 K
Pressure            ... 1.00 atm
Total Mass          ... 44.01 AMU
The molecule is recognized as being linear

Throughout the following assumptions are being made:
  (1) The electronic state is orbitally nondegenerate
  (2) There are no thermally accessible electronically excited states
  (3) Hindered rotations indicated by low frequency modes are not
      treated as such but are treated as vibrations and this may
      cause some error
  (4) All equations used are the standard statistical mechanics
      equations for an ideal gas
  (5) All vibrations are strictly harmonic

freq.     521.79  E(vib)   ...       0.13
freq.     600.50  E(vib)   ...       0.10
freq.    1424.77  E(vib)   ...       0.00
freq.    2593.16  E(vib)   ...       0.00

------------
INNER ENERGY
------------

The inner energy is: U= E(el) + E(ZPE) + E(vib) + E(rot) + E(trans)
    E(el)   - is the total energy from the electronic structure calculation
              = E(kin-el) + E(nuc-el) + E(el-el) + E(nuc-nuc)
    E(ZPE)  - the the zero temperature vibrational energy from the frequency calculation
    E(vib)  - the the finite temperature correction to E(ZPE) due to population
              of excited vibrational states
    E(rot)  - is the rotational thermal energy
    E(trans)- is the translational thermal energy

Summary of contributions to the inner energy U:
Electronic energy                ...    -10.30845229 Eh
Zero point energy                ...      0.01171028 Eh       7.35 kcal/mol
Thermal vibrational correction   ...      0.00037495 Eh       0.24 kcal/mol
Thermal rotational correction    ...      0.00094418 Eh       0.59 kcal/mol
Thermal translational correction ...      0.00141627 Eh       0.89 kcal/mol
-----------------------------------------------------------------------
Total thermal energy                    -10.29400661 Eh

Summary of corrections to the electronic energy:
(perhaps to be used in another calculation)
Total thermal correction                  0.00273540 Eh       1.72 kcal/mol
Non-thermal (ZPE) correction              0.01171028 Eh       7.35 kcal/mol
-----------------------------------------------------------------------
Total correction                          0.01444568 Eh       9.06 kcal/mol

--------
ENTHALPY
--------

The enthalpy is H = U + kB*T
                kB is Boltzmann's constant
Total free energy                 ...    -10.29400661 Eh
Thermal Enthalpy correction       ...      0.00094421 Eh       0.59 kcal/mol
-----------------------------------------------------------------------
Total Enthalpy                    ...    -10.29306240 Eh

Note: Rotational entropy computed according to Herzberg
Infrared and Raman Spectra, Chapter V,1, Van Nostrand Reinhold, 1945
Point Group:  Dinfh, Symmetry Number:   2
Rotational constants in cm-1:     0.000000     0.402798     0.402798

Vibrational entropy computed according to the QRRHO of S. Grimme
Chem.Eur.J. 2012 18 9955

-------
ENTROPY
-------

The entropy contributions are T*S = T*(S(el)+S(vib)+S(rot)+S(trans))
     S(el)   - electronic entropy
     S(vib)  - vibrational entropy
     S(rot)  - rotational entropy
     S(trans)- translational entropy
The entropies will be listed as multiplied by the temperature to get
units of energy

Electronic entropy                ...      0.00000000 Eh      0.00 kcal/mol
Vibrational entropy               ...      0.00050947 Eh      0.32 kcal/mol
Rotational entropy                ...      0.00618437 Eh      3.88 kcal/mol
Translational entropy             ...      0.01770880 Eh     11.11 kcal/mol
-----------------------------------------------------------------------
Final entropy term                ...      0.02440264 Eh     15.31 kcal/mol

-------------------
GIBBS FREE ENERGY
-------------------

The Gibbs free energy is G = H - T*S

Total enthalpy                    ...    -10.29306240 Eh
Total entropy correction          ...     -0.02440264 Eh    -15.31 kcal/mol
-----------------------------------------------------------------------
Final Gibbs free energy         ...    -10.31746504 Eh

For completeness - the Gibbs free energy minus the electronic energy
G-E(el)                           ...     -0.00901275 Eh     -5.66 kcal/mol

                             ****ORCA TERMINATED NORMALLY****
TOTAL RUN TIME: 0 days 0 hours 0 minutes 43 seconds 708 msec
