                         Program Version 5.0.3 -  RELEASE  -
|  1> ! XTB2 opt numfreq
|  2> * XYZ 1 1
|  3> O 0.0017 -0.0041 0.2226
|  4> H 0.8417 -0.4280 -0.0885
|  5> H -0.0496 0.9454 -0.0563
|  6> H -0.7937 -0.5133 -0.0778
|  7> *
|  8>
|  9>                          ****END OF INPUT****
FINAL SINGLE POINT ENERGY        -5.088072766000
FINAL SINGLE POINT ENERGY        -5.088179248260
FINAL SINGLE POINT ENERGY        -5.088189063020
FINAL SINGLE POINT ENERGY        -5.088192141560
FINAL SINGLE POINT ENERGY        -5.088192581100
                    ***********************HURRAY********************

CARTESIAN COORDINATES (ANGSTROEM)
---------------------------------
  O     0.001612   -0.003952    0.213351
  H     0.838248   -0.426303   -0.085360
  H    -0.049378    0.941492   -0.053295
  H    -0.790382   -0.511237   -0.074696

FINAL SINGLE POINT ENERGY        -5.088192591170

VIBRATIONAL FREQUENCIES
-----------------------

Scaling factor for frequencies =  1.000000000 (already applied!)

   0:         0.00 cm**-1
   1:         0.00 cm**-1
   2:         0.00 cm**-1
   3:         0.00 cm**-1
   4:         0.00 cm**-1
   5:         0.00 cm**-1
   6:       956.88 cm**-1
   7:      1354.69 cm**-1
   8:      1354.76 cm**-1
   9:      3257.62 cm**-1
  10:      3257.68 cm**-1
  11:      3317.81 cm**-1

IR SPECTRUM
-----------

 Mode   freq       eps      Int      T**2         TX        TY        TZ
       cm**-1   L/(mol*cm) km/mol    a.u.
----------------------------------------------------------------------------
  6:    956.88   0.182789  923.74  0.059612  ( 0.001187 -0.003774  0.244124)
  7:   1354.69   0.045221  228.53  0.010417  (-0.070563  0.073704  0.002375)
  8:   1354.76   0.045209  228.47  0.010414  ( 0.061922  0.081105  0.001138)
  9:   3257.62   0.080682  407.73  0.007729  ( 0.086528 -0.015516 -0.001054)
 10:   3257.68   0.067027  338.73  0.006421  (-0.018169 -0.078025 -0.001615)
 11:   3317.81   0.013618   68.82  0.001281  ( 0.000901 -0.000590  0.035773)

--------------------------
THERMOCHEMISTRY AT 298.15K
--------------------------

Temperature         ... 298.15 K
Pressure            ... 1.00 atm
Total Mass          ... 19.02 AMU

Throughout the following assumptions are being made:
  (1) The electronic state is orbitally nondegenerate
  (2) There are no thermally accessible electronically excited states
  (3) Hindered rotations indicated by low frequency modes are not
      treated as such but are treated as vibrations and this may
      cause some error
  (4) All equations used are the standard statistical mechanics
      equations for an ideal gas
  (5) All vibrations are strictly harmonic

freq.     956.88  E(vib)   ...       0.03
freq.    1354.69  E(vib)   ...       0.01
freq.    1354.76  E(vib)   ...       0.01
freq.    3257.62  E(vib)   ...       0.00
freq.    3257.68  E(vib)   ...       0.00
freq.    3317.81  E(vib)   ...       0.00

------------
INNER ENERGY
------------

The inner energy is: U= E(el) + E(ZPE) + E(vib) + E(rot) + E(trans)
    E(el)   - is the total energy from the electronic structure calculation
              = E(kin-el) + E(nuc-el) + E(el-el) + E(nuc-nuc)
    E(ZPE)  - the the zero temperature vibrational energy from the frequency calculation
    E(vib)  - the the finite temperature correction to E(ZPE) due to population
              of excited vibrational states
    E(rot)  - is the rotational thermal energy
    E(trans)- is the translational thermal energy

Summary of contributions to the inner energy U:
Electronic energy                ...     -5.08819259 Eh
Zero point energy                ...      0.03075399 Eh      19.30 kcal/mol
Thermal vibrational correction   ...      0.00006141 Eh       0.04 kcal/mol
Thermal rotational correction    ...      0.00141627 Eh       0.89 kcal/mol
Thermal translational correction ...      0.00141627 Eh       0.89 kcal/mol
-----------------------------------------------------------------------
Total thermal energy                     -5.05454465 Eh

Summary of corrections to the electronic energy:
(perhaps to be used in another calculation)
Total thermal correction                  0.00289395 Eh       1.82 kcal/mol
Non-thermal (ZPE) correction              0.03075399 Eh      19.30 kcal/mol
-----------------------------------------------------------------------
Total correction                          0.03364794 Eh      21.11 kcal/mol

--------
ENTHALPY
--------

The enthalpy is H = U + kB*T
                kB is Boltzmann's constant
Total free energy                 ...     -5.05454465 Eh
Thermal Enthalpy correction       ...      0.00094421 Eh       0.59 kcal/mol
-----------------------------------------------------------------------
Total Enthalpy                    ...     -5.05360044 Eh

Note: Rotational entropy computed according to Herzberg
Infrared and Raman Spectra, Chapter V,1, Van Nostrand Reinhold, 1945
Point Group:  C3v, Symmetry Number:   3
Rotational constants in cm-1:    10.901361    10.900426     6.287555

Vibrational entropy computed according to the QRRHO of S. Grimme
Chem.Eur.J. 2012 18 9955

-------
ENTROPY
-------

The entropy contributions are T*S = T*(S(el)+S(vib)+S(rot)+S(trans))
     S(el)   - electronic entropy
     S(vib)  - vibrational entropy
     S(rot)  - rotational entropy
     S(trans)- translational entropy
The entropies will be listed as multiplied by the temperature to get
units of energy

Electronic entropy                ...      0.00000000 Eh      0.00 kcal/mol
Vibrational entropy               ...      0.00007355 Eh      0.05 kcal/mol
Rotational entropy                ...      0.00535005 Eh      3.36 kcal/mol
Translational entropy             ...      0.01652091 Eh     10.37 kcal/mol
-----------------------------------------------------------------------
Final entropy term                ...      0.02194451 Eh     13.77 kcal/mol

In case the symmetry of your molecule has not been determined correctly
or in case you have a reason to use a different symmetry number we print
out the resulting rotational entropy values for sn=1,12 :
 --------------------------------------------------------
|  sn= 1 | S(rot)=       0.00638734 Eh      4.01 kcal/mol|
|  sn= 2 | S(rot)=       0.00573288 Eh      3.60 kcal/mol|
|  sn= 3 | S(rot)=       0.00535005 Eh      3.36 kcal/mol|
|  sn= 4 | S(rot)=       0.00507842 Eh      3.19 kcal/mol|
|  sn= 5 | S(rot)=       0.00486774 Eh      3.05 kcal/mol|
|  sn= 6 | S(rot)=       0.00469559 Eh      2.95 kcal/mol|
|  sn= 7 | S(rot)=       0.00455004 Eh      2.86 kcal/mol|
|  sn= 8 | S(rot)=       0.00442397 Eh      2.78 kcal/mol|
|  sn= 9 | S(rot)=       0.00431276 Eh      2.71 kcal/mol|
|  sn=10 | S(rot)=       0.00421328 Eh      2.64 kcal/mol|
|  sn=11 | S(rot)=       0.00412329 Eh      2.59 kcal/mol|
|  sn=12 | S(rot)=       0.00404113 Eh      2.54 kcal/mol|
 --------------------------------------------------------

-------------------
GIBBS FREE ENERGY
-------------------

The Gibbs free energy is G = H - T*S

Total enthalpy                    ...     -5.05360044 Eh
Total entropy correction          ...     -0.02194451 Eh    -13.77 kcal/mol
-----------------------------------------------------------------------
Final Gibbs free energy         ...     -5.07554495 Eh

For completeness - the Gibbs free energy minus the electronic energy
G-E(el)                           ...      0.01264764 Eh      7.94 kcal/mol

                             ****ORCA TERMINATED NORMALLY****
TOTAL RUN TIME: 0 days 0 hours 0 minutes 57 seconds 889 msec
