                         Program Version 5.0.3 -  RELEASE  -
|  1> ! XTB2 opt numfreq
|  2> * xyz 0 1
|  3> N 7.912840 -3.916082 1.344804
|  4> C 7.481964 -3.922595 .049523
|  5> O 7.806012 -4.821152 -.709309
|  6> C 6.635573 -2.796241 -.389884
|  7> C 6.447770 -1.669016 .318603
|  8> N 5.661504 -.617639 -.104135
|  9> C 5.414744 .481336 .787025
| 10> O 4.246186 .267528 1.575163
| 11> C 3.209193 1.169645 1.247266
| 12> C 1.961675 .365932 .859725
| 13> O .848774 1.210675 .604927
| 14> P .627742 1.938263 -.792711
| 15> O 1.003180 3.359566 -.784787
| 16> O 1.199624 1.039630 -1.923429
| 17> O -.947653 1.780146 -.983762
| 18> P -2.107086 2.664704 -.290922
| 19> O -3.350296 2.325375 -.979335
| 20> O -1.581256 4.126781 -.402054
| 21> O -2.023449 2.332970 1.259303
| 22> C -3.007375 1.572286 1.967366
| 23> C -2.638669 .075686 2.134122
| 24> O -3.817127 -.711640 2.274240
| 25> C -4.130485 -1.357735 1.054986
| 26> N -5.516209 -1.206849 .740208
| 27> C -6.437723 -2.206972 .552800
| 28> N -7.621363 -1.785591 .245944
| 29> C -7.516240 -.416074 .225894
| 30> C -8.423588 .627501 -.035041
| 31> N -9.713190 .414775 -.336872
| 32> N -7.975926 1.885672 .027155
| 33> C -6.711339 2.106625 .336294
| 34> N -5.768200 1.221834 .607413
| 35> C -6.200137 -.037190 .535982
| 36> C -3.200979 -.706554 .015727
| 37> O -2.963697 -1.511265 -1.113670
| 38> P -1.984199 -.886423 -2.225922
| 39> O -.567715 -.840022 -1.776668
| 40> O -2.633215 .411528 -2.792077
| 41> O -2.191738 -1.890871 -3.414314
| 42> C -1.957332 -.457852 .879789
| 43> O -1.259158 -1.644502 1.143595
| 44> C 3.718039 2.103048 .121427
| 45> O 3.487225 3.454576 .389966
| 46> C 5.243803 1.841016 .083232
| 47> O 5.950680 2.820471 .782245
| 48> C 4.846781 -.843692 -1.216092
| 49> C 4.975115 -1.917946 -1.990541
| 50> C 6.020188 -2.976294 -1.761427
| 51> H 8.436928 -4.720025 1.649667
| 52> H 7.513410 -3.319376 2.046364
| 53> H 6.923846 -1.496192 1.273800
| 54> H 6.265839 .552090 1.477019
| 55> H 2.981103 1.783004 2.131091
| 56> H 2.181723 -.257819 -.011886
| 57> H 1.669195 -.275611 1.694603
| 58> H .596632 .250290 -2.031219
| 59> H -.608082 4.172573 -.466375
| 60> H -3.086162 2.043277 2.949198
| 61> H -3.978890 1.637317 1.456187
| 62> H -2.028534 -.094797 3.024482
| 63> H -3.918806 -2.435182 1.135757
| 64> H -6.173278 -3.241520 .651967
| 65> H -10.054856 -.526660 -.402040
| 66> H -10.306523 1.202009 -.527517
| 67> H -6.405042 3.142984 .371525
| 68> H -3.645719 .245706 -.284026
| 69> H -2.926486 1.130212 -2.194001
| 70> H -1.457575 -2.497204 -3.501146
| 71> H -1.284382 .271878 .448930
| 72> H -.802898 -1.895044 .328930
| 73> H 3.262816 1.819737 -.835401
| 74> H 2.620941 3.696554 .020008
| 75> H 5.614750 1.786080 -.950301
| 76> H 5.367672 3.593291 .852311
| 77> H 4.101299 -.082060 -1.405486
| 78> H 4.317259 -2.044759 -2.835769
| 79> H 5.585214 -3.988987 -1.843246
| 80> H 6.811898 -2.920997 -2.534922
| 81> *
| 82>
| 83>                          ****END OF INPUT****
FINAL SINGLE POINT ENERGY      -157.999990089580
FINAL SINGLE POINT ENERGY      -158.000257620200
FINAL SINGLE POINT ENERGY      -157.998776005690
FINAL SINGLE POINT ENERGY      -158.000118348350
FINAL SINGLE POINT ENERGY      -157.974893890790
FINAL SINGLE POINT ENERGY      -157.999528649990
FINAL SINGLE POINT ENERGY      -157.994376199300
FINAL SINGLE POINT ENERGY      -157.998967210250
FINAL SINGLE POINT ENERGY      -157.995231896780
FINAL SINGLE POINT ENERGY      -158.000089622660
FINAL SINGLE POINT ENERGY      -158.000369310810
FINAL SINGLE POINT ENERGY      -158.000375422590
FINAL SINGLE POINT ENERGY      -158.000382091410
FINAL SINGLE POINT ENERGY      -158.000385339140
FINAL SINGLE POINT ENERGY      -158.000387645180
FINAL SINGLE POINT ENERGY      -158.000389153620
FINAL SINGLE POINT ENERGY      -158.000390939210
FINAL SINGLE POINT ENERGY      -158.000391537150
FINAL SINGLE POINT ENERGY      -158.000391941340
                    ***********************HURRAY********************

CARTESIAN COORDINATES (ANGSTROEM)
---------------------------------
  N     7.284978   -3.970356    1.495643
  C     6.666642   -4.050516    0.283176
  O     6.747312   -5.059079   -0.393097
  C     5.919144   -2.857999   -0.167744
  C     6.115629   -1.629633    0.327111
  N     5.507537   -0.490940   -0.160595
  C     5.503037    0.683904    0.667209
  O     4.449267    0.654007    1.619654
  C     3.350228    1.427948    1.186039
  C     2.188768    0.501005    0.803784
  O     0.986393    1.220063    0.573529
  P     0.727698    2.042755   -0.763133
  O     1.064402    3.470564   -0.664264
  O     1.304984    1.242583   -1.963115
  O    -0.844521    1.848388   -0.935193
  P    -2.016970    2.647393   -0.164490
  O    -3.260750    2.323333   -0.858997
  O    -1.532127    4.127769   -0.176883
  O    -1.900149    2.209343    1.356444
  C    -2.850114    1.371115    2.021637
  C    -2.437193   -0.122012    2.074404
  O    -3.591334   -0.950469    2.173081
  C    -3.905502   -1.515558    0.914771
  N    -5.299623   -1.382244    0.630184
  C    -6.195043   -2.392090    0.380254
  N    -7.394426   -1.984208    0.119871
  C    -7.328200   -0.614738    0.199833
  C    -8.268225    0.417957    0.027792
  N    -9.555406    0.190249   -0.273741
  N    -7.855594    1.680465    0.177476
  C    -6.593416    1.914913    0.486738
  N    -5.621924    1.040804    0.680197
  C    -6.018973   -0.221471    0.521090
  C    -3.010595   -0.765231   -0.086920
  O    -2.770513   -1.479993   -1.274257
  P    -1.822361   -0.753392   -2.350757
  O    -0.401574   -0.700121   -1.917210
  O    -2.513222    0.562945   -2.816635
  O    -2.021172   -1.676040   -3.605029
  C    -1.760667   -0.544197    0.775888
  O    -1.026871   -1.726459    0.943268
  C     3.836384    2.324329    0.017343
  O     3.652035    3.687663    0.261157
  C     5.351494    2.019228   -0.082335
  O     6.117488    2.995739    0.555929
  C     4.681515   -0.638851   -1.275709
  C     4.432488   -1.813665   -1.840454
  C     4.954178   -3.110200   -1.302696
  H     7.737995   -4.804355    1.830993
  H     7.071518   -3.250163    2.159724
  H     6.819855   -1.435755    1.122844
  H     6.436040    0.698207    1.242578
  H     3.035257    2.063474    2.023460
  H     2.456906   -0.092398   -0.076171
  H     1.977281   -0.169568    1.640271
  H     0.729862    0.439356   -2.109549
  H    -0.562029    4.204216   -0.258287
  H    -2.925624    1.767934    3.035783
  H    -3.831459    1.444254    1.530795
  H    -1.808958   -0.338573    2.941734
  H    -3.662933   -2.589278    0.914236
  H    -5.900141   -3.422739    0.399418
  H    -9.871320   -0.753378   -0.402922
  H   -10.173797    0.971340   -0.397304
  H    -6.316032    2.954174    0.594892
  H    -3.485656    0.192937   -0.311020
  H    -2.818815    1.227077   -2.165149
  H    -1.279881   -2.265877   -3.734035
  H    -1.114105    0.233243    0.390759
  H    -0.561634   -1.894185    0.112819
  H     3.330285    2.033291   -0.910152
  H     2.750436    3.920491   -0.016487
  H     5.681658    1.926666   -1.125817
  H     5.550314    3.775437    0.663159
  H     4.295043    0.276533   -1.692341
  H     3.832249   -1.854979   -2.735707
  H     4.126395   -3.741306   -0.952465
  H     5.462712   -3.682938   -2.086032

FINAL SINGLE POINT ENERGY      -158.000392170390

VIBRATIONAL FREQUENCIES
-----------------------

Scaling factor for frequencies =  1.000000000 (already applied!)

   0:         0.00 cm**-1
   1:         0.00 cm**-1
   2:         0.00 cm**-1
   3:         0.00 cm**-1
   4:         0.00 cm**-1
   5:         0.00 cm**-1
   6:         5.33 cm**-1
   7:         7.57 cm**-1
   8:        12.86 cm**-1
   9:        16.70 cm**-1
  10:        19.50 cm**-1
  11:        28.15 cm**-1
  12:        30.35 cm**-1
  13:        36.61 cm**-1
  14:        40.46 cm**-1
  15:        46.23 cm**-1
  16:        62.57 cm**-1
  17:        65.25 cm**-1
  18:        72.62 cm**-1
  19:        77.00 cm**-1
  20:        84.60 cm**-1
  21:        98.84 cm**-1
  22:       106.01 cm**-1
  23:       108.65 cm**-1
  24:       112.83 cm**-1
  25:       115.83 cm**-1
  26:       122.15 cm**-1
  27:       130.09 cm**-1
  28:       132.87 cm**-1
  29:       143.35 cm**-1
  30:       149.94 cm**-1
  31:       160.72 cm**-1
  32:       166.87 cm**-1
  33:       171.21 cm**-1
  34:       182.12 cm**-1
  35:       187.51 cm**-1
  36:       192.59 cm**-1
  37:       203.38 cm**-1
  38:       210.89 cm**-1
  39:       213.60 cm**-1
  40:       221.65 cm**-1
  41:       230.73 cm**-1
  42:       236.38 cm**-1
  43:       239.70 cm**-1
  44:       260.55 cm**-1
  45:       268.65 cm**-1
  46:       283.00 cm**-1
  47:       285.70 cm**-1
  48:       293.00 cm**-1
  49:       299.59 cm**-1
  50:       305.13 cm**-1
  51:       306.92 cm**-1
  52:       320.04 cm**-1
  53:       322.80 cm**-1
  54:       339.80 cm**-1
  55:       342.66 cm**-1
  56:       347.01 cm**-1
  57:       361.32 cm**-1
  58:       365.68 cm**-1
  59:       370.63 cm**-1
  60:       374.81 cm**-1
  61:       384.71 cm**-1
  62:       388.79 cm**-1
  63:       393.04 cm**-1
  64:       397.86 cm**-1
  65:       399.22 cm**-1
  66:       407.34 cm**-1
  67:       420.97 cm**-1
  68:       440.76 cm**-1
  69:       444.78 cm**-1
  70:       459.05 cm**-1
  71:       464.95 cm**-1
  72:       474.75 cm**-1
  73:       475.73 cm**-1
  74:       490.20 cm**-1
  75:       494.65 cm**-1
  76:       506.21 cm**-1
  77:       507.70 cm**-1
  78:       515.89 cm**-1
  79:       519.06 cm**-1
  80:       526.13 cm**-1
  81:       535.38 cm**-1
  82:       541.83 cm**-1
  83:       556.34 cm**-1
  84:       569.51 cm**-1
  85:       590.16 cm**-1
  86:       590.56 cm**-1
  87:       596.50 cm**-1
  88:       606.85 cm**-1
  89:       607.88 cm**-1
  90:       625.11 cm**-1
  91:       632.33 cm**-1
  92:       643.59 cm**-1
  93:       663.94 cm**-1
  94:       682.98 cm**-1
  95:       689.64 cm**-1
  96:       709.53 cm**-1
  97:       733.52 cm**-1
  98:       735.38 cm**-1
  99:       738.19 cm**-1
 100:       742.22 cm**-1
 101:       751.10 cm**-1
 102:       762.04 cm**-1
 103:       765.16 cm**-1
 104:       782.86 cm**-1
 105:       795.66 cm**-1
 106:       812.76 cm**-1
 107:       832.00 cm**-1
 108:       832.51 cm**-1
 109:       836.84 cm**-1
 110:       841.73 cm**-1
 111:       862.75 cm**-1
 112:       877.06 cm**-1
 113:       886.21 cm**-1
 114:       886.84 cm**-1
 115:       887.97 cm**-1
 116:       892.23 cm**-1
 117:       907.38 cm**-1
 118:       909.94 cm**-1
 119:       912.33 cm**-1
 120:       918.63 cm**-1
 121:       929.18 cm**-1
 122:       929.96 cm**-1
 123:       932.75 cm**-1
 124:       949.62 cm**-1
 125:       952.38 cm**-1
 126:       956.18 cm**-1
 127:       985.74 cm**-1
 128:       994.88 cm**-1
 129:      1007.15 cm**-1
 130:      1015.20 cm**-1
 131:      1016.51 cm**-1
 132:      1017.64 cm**-1
 133:      1022.50 cm**-1
 134:      1024.96 cm**-1
 135:      1027.69 cm**-1
 136:      1041.69 cm**-1
 137:      1046.13 cm**-1
 138:      1058.25 cm**-1
 139:      1064.35 cm**-1
 140:      1070.40 cm**-1
 141:      1080.33 cm**-1
 142:      1093.32 cm**-1
 143:      1094.56 cm**-1
 144:      1099.54 cm**-1
 145:      1105.65 cm**-1
 146:      1117.22 cm**-1
 147:      1120.10 cm**-1
 148:      1142.43 cm**-1
 149:      1143.63 cm**-1
 150:      1150.22 cm**-1
 151:      1164.41 cm**-1
 152:      1166.53 cm**-1
 153:      1167.80 cm**-1
 154:      1180.53 cm**-1
 155:      1183.18 cm**-1
 156:      1189.83 cm**-1
 157:      1190.85 cm**-1
 158:      1198.38 cm**-1
 159:      1208.32 cm**-1
 160:      1211.76 cm**-1
 161:      1225.23 cm**-1
 162:      1233.24 cm**-1
 163:      1234.12 cm**-1
 164:      1244.28 cm**-1
 165:      1250.26 cm**-1
 166:      1253.02 cm**-1
 167:      1256.77 cm**-1
 168:      1263.70 cm**-1
 169:      1268.61 cm**-1
 170:      1268.88 cm**-1
 171:      1272.28 cm**-1
 172:      1275.29 cm**-1
 173:      1275.90 cm**-1
 174:      1281.35 cm**-1
 175:      1288.86 cm**-1
 176:      1300.09 cm**-1
 177:      1302.95 cm**-1
 178:      1308.24 cm**-1
 179:      1324.55 cm**-1
 180:      1324.87 cm**-1
 181:      1327.66 cm**-1
 182:      1327.75 cm**-1
 183:      1332.31 cm**-1
 184:      1343.07 cm**-1
 185:      1346.31 cm**-1
 186:      1350.09 cm**-1
 187:      1360.39 cm**-1
 188:      1369.76 cm**-1
 189:      1370.37 cm**-1
 190:      1378.24 cm**-1
 191:      1399.23 cm**-1
 192:      1421.40 cm**-1
 193:      1452.59 cm**-1
 194:      1453.72 cm**-1
 195:      1453.84 cm**-1
 196:      1479.88 cm**-1
 197:      1501.38 cm**-1
 198:      1525.21 cm**-1
 199:      1571.36 cm**-1
 200:      1602.92 cm**-1
 201:      1673.67 cm**-1
 202:      1712.37 cm**-1
 203:      1721.39 cm**-1
 204:      2780.74 cm**-1
 205:      2850.54 cm**-1
 206:      2878.52 cm**-1
 207:      2881.92 cm**-1
 208:      2885.58 cm**-1
 209:      2915.05 cm**-1
 210:      2925.71 cm**-1
 211:      2933.82 cm**-1
 212:      2935.03 cm**-1
 213:      2940.59 cm**-1
 214:      2964.43 cm**-1
 215:      2969.56 cm**-1
 216:      2974.33 cm**-1
 217:      2975.40 cm**-1
 218:      3072.84 cm**-1
 219:      3074.06 cm**-1
 220:      3091.35 cm**-1
 221:      3096.66 cm**-1
 222:      3114.24 cm**-1
 223:      3129.35 cm**-1
 224:      3165.97 cm**-1
 225:      3187.23 cm**-1
 226:      3375.83 cm**-1
 227:      3429.84 cm**-1
 228:      3478.02 cm**-1
 229:      3490.14 cm**-1
 230:      3493.16 cm**-1
 231:      3556.13 cm**-1
 232:      3568.30 cm**-1
 233:      3619.36 cm**-1

IR SPECTRUM
-----------

 Mode   freq       eps      Int      T**2         TX        TY        TZ
       cm**-1   L/(mol*cm) km/mol    a.u.
----------------------------------------------------------------------------
  6:      5.33   0.000108    0.54  0.006301  (-0.067082  0.032026  0.027851)
  7:      7.57   0.000314    1.59  0.012936  ( 0.075805 -0.055338  0.064248)
  8:     12.86   0.000175    0.88  0.004244  (-0.046218 -0.041604  0.019410)
  9:     16.70   0.000288    1.46  0.005383  ( 0.072293 -0.008093 -0.009537)
 10:     19.50   0.000337    1.71  0.005399  ( 0.047743 -0.055164 -0.008724)
 11:     28.15   0.000057    0.29  0.000636  ( 0.005504  0.009759  0.022589)
 12:     30.35   0.000037    0.19  0.000384  ( 0.010535 -0.012196  0.011131)
 13:     36.61   0.001915    9.68  0.016321  (-0.106688 -0.036580  0.060003)
 14:     40.46   0.001154    5.83  0.008903  ( 0.003841  0.088922 -0.031326)
 15:     46.23   0.000342    1.73  0.002306  ( 0.008987  0.046943  0.004613)
 16:     62.57   0.000031    0.15  0.000153  ( 0.007310  0.001642 -0.009837)
 17:     65.25   0.000157    0.79  0.000750  (-0.023277 -0.014045  0.003251)
 18:     72.62   0.000032    0.16  0.000139  ( 0.010248  0.004644  0.003513)
 19:     77.00   0.000317    1.60  0.001283  (-0.003716 -0.035624 -0.000325)
 20:     84.60   0.000556    2.81  0.002051  ( 0.029653 -0.004486 -0.033928)
 21:     98.84   0.000953    4.81  0.003007  ( 0.038353  0.010277  0.037826)
 22:    106.01   0.000703    3.55  0.002068  (-0.014374 -0.026050  0.034398)
 23:    108.65   0.000113    0.57  0.000326  (-0.016233  0.007487  0.002500)
 24:    112.83   0.000488    2.47  0.001350  ( 0.028290  0.019505 -0.012998)
 25:    115.83   0.002059   10.41  0.005548  (-0.041863 -0.026536  0.055597)
 26:    122.15   0.000902    4.56  0.002305  (-0.036662  0.015594 -0.026794)
 27:    130.09   0.001353    6.84  0.003245  (-0.046130 -0.007285  0.032614)
 28:    132.87   0.001242    6.28  0.002917  ( 0.036358  0.039922 -0.001338)
 29:    143.35   0.000113    0.57  0.000245  (-0.012309  0.001844  0.009495)
 30:    149.94   0.022001  111.18  0.045788  ( 0.087752  0.050519 -0.188509)
 31:    160.72   0.006322   31.95  0.012274  ( 0.039289  0.099546 -0.028655)
 32:    166.87   0.003821   19.31  0.007146  ( 0.012893  0.082539 -0.012919)
 33:    171.21   0.007403   37.41  0.013493  ( 0.051471 -0.039504 -0.096351)
 34:    182.12   0.003806   19.23  0.006521  ( 0.080637  0.002011  0.003775)
 35:    187.51   0.000464    2.35  0.000772  (-0.018281 -0.011504 -0.017489)
 36:    192.59   0.001576    7.96  0.002553  ( 0.016735 -0.046300  0.011369)
 37:    203.38   0.021020  106.23  0.032254  ( 0.097784  0.028081 -0.147998)
 38:    210.89   0.003329   16.83  0.004927  (-0.017144  0.007961  0.067598)
 39:    213.60   0.003561   18.00  0.005203  ( 0.046530  0.000564 -0.055111)
 40:    221.65   0.003238   16.36  0.004559  (-0.039902  0.008331  0.053826)
 41:    230.73   0.002105   10.64  0.002847  (-0.053261  0.002450 -0.002071)
 42:    236.38   0.000758    3.83  0.001000  (-0.011242  0.029483 -0.002190)
 43:    239.70   0.003547   17.92  0.004618  (-0.056490 -0.031480 -0.020869)
 44:    260.55   0.000901    4.55  0.001079  ( 0.010950  0.025234 -0.017952)
 45:    268.65   0.010794   54.55  0.012538  ( 0.104006  0.029327 -0.029333)
 46:    283.00   0.000170    0.86  0.000187  ( 0.008727  0.003276 -0.010005)
 47:    285.70   0.000996    5.03  0.001087  (-0.029281 -0.011242  0.010179)
 48:    293.00   0.005311   26.84  0.005656  (-0.070810  0.025254  0.002140)
 49:    299.59   0.011547   58.35  0.012028  (-0.105346 -0.029784 -0.006537)
 50:    305.13   0.016371   82.73  0.016743  ( 0.100048  0.065651 -0.049227)
 51:    306.92   0.004001   20.22  0.004068  ( 0.044240  0.019690 -0.041513)
 52:    320.04   0.006364   32.16  0.006205  ( 0.036186  0.040477  0.057075)
 53:    322.80   0.007505   37.93  0.007255  (-0.056915 -0.056149  0.029384)
 54:    339.80   0.006344   32.06  0.005826  (-0.040021 -0.003205 -0.064919)
 55:    342.66   0.002469   12.48  0.002249  (-0.033363 -0.029966 -0.015415)
 56:    347.01   0.005268   26.62  0.004737  (-0.004346  0.005288  0.068487)
 57:    361.32   0.005390   27.24  0.004655  (-0.059593 -0.033187 -0.001661)
 58:    365.68   0.001738    8.78  0.001483  (-0.033334  0.017561  0.007963)
 59:    370.63   0.013043   65.91  0.010982  ( 0.047973  0.043239 -0.082528)
 60:    374.81   0.001905    9.63  0.001586  (-0.015732 -0.028901 -0.022438)
 61:    384.71   0.002253   11.38  0.001827  ( 0.032434 -0.026206 -0.009417)
 62:    388.79   0.011609   58.67  0.009318  ( 0.090517  0.025939  0.021262)
 63:    393.04   0.001409    7.12  0.001119  (-0.001634 -0.029755 -0.015193)
 64:    397.86   0.001326    6.70  0.001040  (-0.008086 -0.019035 -0.024743)
 65:    399.22   0.004278   21.62  0.003344  (-0.030809 -0.048924  0.001070)
 66:    407.34   0.004898   24.75  0.003752  ( 0.052272  0.030775  0.008522)
 67:    420.97   0.005410   27.34  0.004010  (-0.007537  0.003436  0.062782)
 68:    440.76   0.009346   47.23  0.006617  (-0.077548  0.014164 -0.020079)
 69:    444.78   0.019348   97.78  0.013575  ( 0.100349  0.043279 -0.040392)
 70:    459.05   0.029920  151.20  0.020340  (-0.068948  0.121781  0.027479)
 71:    464.95   0.008278   41.83  0.005556  (-0.032906 -0.003632 -0.066781)
 72:    474.75   0.006500   32.85  0.004273  ( 0.055433 -0.033849 -0.007368)
 73:    475.73   0.001129    5.71  0.000741  ( 0.020648 -0.001306 -0.017678)
 74:    490.20   0.002258   11.41  0.001437  ( 0.015863  0.034001 -0.005430)
 75:    494.65   0.016256   82.15  0.010255  (-0.057937 -0.057925  0.059525)
 76:    506.21   0.015335   77.50  0.009453  (-0.091995 -0.006020  0.030888)
 77:    507.70   0.001804    9.12  0.001109  (-0.031740 -0.004989 -0.008745)
 78:    515.89   0.001107    5.59  0.000669  (-0.020877 -0.011378  0.010205)
 79:    519.06   0.002445   12.36  0.001470  (-0.023082 -0.029467 -0.008305)
 80:    526.13   0.007392   37.36  0.004384  (-0.062661 -0.001385  0.021358)
 81:    535.38   0.010452   52.82  0.006092  ( 0.020090 -0.071083 -0.025219)
 82:    541.83   0.001224    6.18  0.000705  ( 0.015404 -0.013485 -0.016904)
 83:    556.34   0.010602   53.58  0.005947  (-0.067130  0.034651  0.015477)
 84:    569.51   0.009018   45.57  0.004941  ( 0.030515  0.062191  0.011933)
 85:    590.16   0.002207   11.15  0.001167  ( 0.011860 -0.006786  0.031307)
 86:    590.56   0.005498   27.79  0.002905  (-0.043705  0.000817 -0.031538)
 87:    596.50   0.048028  242.71  0.025126  (-0.023149 -0.023233  0.155081)
 88:    606.85   0.016457   83.17  0.008463  (-0.054785 -0.051274  0.053220)
 89:    607.88   0.000750    3.79  0.000385  ( 0.001614  0.015707  0.011639)
 90:    625.11   0.007776   39.30  0.003882  (-0.022554 -0.003519  0.057973)
 91:    632.33   0.002016   10.19  0.000995  (-0.025694 -0.009824  0.015431)
 92:    643.59   0.026681  134.84  0.012937  (-0.094606 -0.058378 -0.024061)
 93:    663.94   0.004767   24.09  0.002240  (-0.034061 -0.018685 -0.027039)
 94:    682.98   0.005552   28.06  0.002537  (-0.039078 -0.010827  0.029877)
 95:    689.64   0.011472   57.98  0.005191  (-0.029450  0.062827  0.019410)
 96:    709.53   0.006498   32.84  0.002858  ( 0.011542  0.050805 -0.011980)
 97:    733.52   0.001850    9.35  0.000787  ( 0.008900  0.010031  0.024644)
 98:    735.38   0.002228   11.26  0.000946  ( 0.016024  0.010504 -0.024054)
 99:    738.19   0.010711   54.13  0.004528  (-0.065656  0.014402 -0.003175)
100:    742.22   0.012423   62.78  0.005223  (-0.070853  0.011606  0.008264)
101:    751.10   0.001576    7.96  0.000655  ( 0.013327 -0.021809  0.001231)
102:    762.04   0.006851   34.62  0.002806  (-0.015402  0.040828  0.030024)
103:    765.16   0.003700   18.70  0.001509  ( 0.017784  0.004988 -0.034172)
104:    782.86   0.029729  150.24  0.011851  (-0.004660  0.015512  0.107649)
105:    795.66   0.033083  167.19  0.012975  (-0.101681 -0.015598  0.048919)
106:    812.76   0.000840    4.24  0.000322  (-0.001797  0.005800 -0.016897)
107:    832.00   0.000321    1.62  0.000120  (-0.006160 -0.003218 -0.008487)
108:    832.51   0.010393   52.52  0.003896  (-0.056041 -0.001990 -0.027406)
109:    836.84   0.033122  167.39  0.012352  ( 0.027124 -0.057006  0.091467)
110:    841.73   0.004777   24.14  0.001771  (-0.028378  0.010465 -0.029263)
111:    862.75   0.027908  141.03  0.010094  (-0.014781 -0.027505  0.095496)
112:    877.06   0.049526  250.28  0.017621  (-0.122866  0.042188  0.027303)
113:    886.21   0.002168   10.96  0.000764  ( 0.026040  0.009224 -0.000617)
114:    886.84   0.003183   16.09  0.001120  ( 0.018680 -0.025738 -0.010429)
115:    887.97   0.017927   90.60  0.006300  (-0.062770  0.029974 -0.038233)
116:    892.23   0.000191    0.97  0.000067  ( 0.008113 -0.000719 -0.000758)
117:    907.38   0.060573  306.11  0.020832  ( 0.054353 -0.042304 -0.126839)
118:    909.94   0.049988  252.62  0.017143  ( 0.065164  0.106387  0.039732)
119:    912.33   0.056128  283.65  0.019199  (-0.134343 -0.033739  0.003465)
120:    918.63   0.000049    0.25  0.000017  (-0.003632 -0.000400 -0.001819)
121:    929.18   0.039561  199.92  0.013286  ( 0.033585 -0.109213  0.015199)
122:    929.96   0.002002   10.12  0.000672  (-0.019647  0.009780 -0.013790)
123:    932.75   0.039315  198.68  0.013153  (-0.025119 -0.031485  0.107383)
124:    949.62   0.002109   10.66  0.000693  (-0.016670 -0.002172  0.020258)
125:    952.38   0.005371   27.14  0.001760  (-0.025395  0.009076  0.032136)
126:    956.18   0.000391    1.97  0.000127  ( 0.011114 -0.000638 -0.001887)
127:    985.74   0.000620    3.13  0.000196  ( 0.013065 -0.003704 -0.003438)
128:    994.88   0.018976   95.90  0.005952  ( 0.025672  0.041148 -0.060001)
129:   1007.15   0.062162  314.14  0.019261  (-0.053943  0.111314  0.062930)
130:   1015.20   0.082242  415.62  0.025280  (-0.000876  0.135745 -0.082781)
131:   1016.51   0.004323   21.85  0.001327  (-0.007567 -0.003513 -0.035462)
132:   1017.64   0.036080  182.33  0.011064  (-0.054618  0.051969 -0.073350)
133:   1022.50   0.002553   12.90  0.000779  (-0.002020  0.027313  0.005390)
134:   1024.96   0.013845   69.97  0.004215  ( 0.053634 -0.020758  0.030128)
135:   1027.69   0.004851   24.51  0.001473  ( 0.018781 -0.033177  0.004418)
136:   1041.69   0.011827   59.77  0.003543  ( 0.053082  0.013088  0.023542)
137:   1046.13   0.007156   36.16  0.002135  ( 0.019717  0.032869  0.025798)
138:   1058.25   0.014757   74.57  0.004352  (-0.040248 -0.027107 -0.044686)
139:   1064.35   0.037719  190.62  0.011059  ( 0.063978 -0.082282 -0.013988)
140:   1070.40   0.022202  112.20  0.006473  (-0.039447 -0.034358  0.061123)
141:   1080.33   0.004044   20.44  0.001168  (-0.030984  0.003970  0.013869)
142:   1093.32   0.017049   86.16  0.004866  ( 0.024846 -0.017512  0.062789)
143:   1094.56   0.002031   10.26  0.000579  ( 0.009526 -0.017255 -0.013803)
144:   1099.54   0.029359  148.37  0.008332  (-0.066644 -0.027271  0.056100)
145:   1105.65   0.132923  671.74  0.037517  ( 0.182969  0.012208 -0.062370)
146:   1117.22   0.001457    7.36  0.000407  ( 0.016047 -0.012192 -0.000919)
147:   1120.10   0.010040   50.74  0.002797  ( 0.004300  0.038621  0.035877)
148:   1142.43   0.005188   26.22  0.001417  (-0.000678 -0.037302 -0.005031)
149:   1143.63   0.020984  106.04  0.005726  ( 0.027991 -0.067691 -0.018981)
150:   1150.22   0.041156  207.99  0.011166  ( 0.099872 -0.033819 -0.006916)
151:   1164.41   0.014097   71.24  0.003778  (-0.034391 -0.041631 -0.029363)
152:   1166.53   0.012372   62.52  0.003310  (-0.014180 -0.046841 -0.030240)
153:   1167.80   0.078811  398.28  0.021060  ( 0.102844  0.024793  0.099340)
154:   1180.53   0.010176   51.42  0.002690  (-0.018572 -0.041505  0.024946)
155:   1183.18   0.030936  156.34  0.008159  (-0.033722  0.081652 -0.018846)
156:   1189.83   0.011885   60.06  0.003117  (-0.027327 -0.048239 -0.006590)
157:   1190.85   0.008402   42.46  0.002202  ( 0.030470  0.035295  0.005257)
158:   1198.38   0.018087   91.40  0.004710  ( 0.020436 -0.065497 -0.001530)
159:   1208.32   0.005542   28.01  0.001431  ( 0.011218 -0.025163 -0.025927)
160:   1211.76   0.003533   17.86  0.000910  ( 0.001049  0.018954 -0.023443)
161:   1225.23   0.031151  157.42  0.007934  (-0.046084 -0.074605  0.015631)
162:   1233.24   0.057947  292.84  0.014663  ( 0.026961 -0.115072  0.026351)
163:   1234.12   0.009259   46.79  0.002341  ( 0.033318 -0.031647  0.015154)
164:   1244.28   0.021758  109.96  0.005457  (-0.064381  0.020555 -0.029825)
165:   1250.26   0.010001   50.54  0.002496  ( 0.004440  0.039749  0.029943)
166:   1253.02   0.004216   21.30  0.001050  ( 0.013885  0.028528  0.006575)
167:   1256.77   0.005674   28.67  0.001409  (-0.022146 -0.028955 -0.008947)
168:   1263.70   0.072845  368.13  0.017989  (-0.098238 -0.058013 -0.070516)
169:   1268.61   0.055149  278.70  0.013566  (-0.087804  0.026987 -0.071611)
170:   1268.88   0.007269   36.74  0.001788  (-0.027653 -0.028995  0.013504)
171:   1272.28   0.001557    7.87  0.000382  (-0.014636 -0.005782 -0.011584)
172:   1275.29   0.006265   31.66  0.001533  (-0.029840 -0.014182 -0.021011)
173:   1275.90   0.002128   10.75  0.000520  ( 0.008994 -0.007445  0.019598)
174:   1281.35   0.046160  233.27  0.011242  ( 0.051573 -0.069056  0.061753)
175:   1288.86   0.002261   11.43  0.000547  ( 0.021680 -0.003905  0.007887)
176:   1300.09   0.000529    2.67  0.000127  ( 0.003107  0.010559 -0.002421)
177:   1302.95   0.025138  127.04  0.006021  (-0.053941  0.011398 -0.054601)
178:   1308.24   0.027638  139.67  0.006593  (-0.046307 -0.064244 -0.017921)
179:   1324.55   0.001815    9.17  0.000428  (-0.001454 -0.012380 -0.016501)
180:   1324.87   0.011794   59.60  0.002778  (-0.052455 -0.001472 -0.004931)
181:   1327.66   0.004993   25.23  0.001174  ( 0.025156 -0.013663  0.018817)
182:   1327.75   0.007630   38.56  0.001793  ( 0.000004  0.042316  0.001654)
183:   1332.31   0.001325    6.70  0.000310  (-0.016261  0.003102 -0.006024)
184:   1343.07   0.014626   73.91  0.003398  (-0.055812 -0.004002 -0.016354)
185:   1346.31   0.000517    2.61  0.000120  (-0.007593 -0.007347  0.002859)
186:   1350.09   0.010987   55.52  0.002540  (-0.005402  0.050104  0.000078)
187:   1360.39   0.000171    0.86  0.000039  (-0.003496 -0.004559 -0.002499)
188:   1369.76   0.007845   39.65  0.001787  ( 0.011220 -0.033349 -0.023436)
189:   1370.37   0.002147   10.85  0.000489  ( 0.010568  0.016290 -0.010571)
190:   1378.24   0.023406  118.28  0.005300  (-0.047833 -0.012691 -0.053391)
191:   1399.23   0.027469  138.82  0.006126  (-0.071082  0.027789 -0.017360)
192:   1421.40   0.022991  116.19  0.005048  ( 0.069484 -0.005400  0.013803)
193:   1452.59   0.002646   13.37  0.000568  (-0.001641  0.021388 -0.010408)
194:   1453.72   0.024288  122.74  0.005214  (-0.034606  0.033939 -0.053519)
195:   1453.84   0.001593    8.05  0.000342  ( 0.010863 -0.011745 -0.009272)
196:   1479.88   0.000838    4.24  0.000177  ( 0.010452  0.003889  0.007240)
197:   1501.38   0.030873  156.02  0.006417  (-0.053535 -0.058818 -0.009561)
198:   1525.21   0.002824   14.27  0.000578  ( 0.016672  0.016191  0.006146)
199:   1571.36   0.009509   48.05  0.001888  ( 0.012411  0.041429  0.004236)
200:   1602.92   0.184659  933.19  0.035950  (-0.184364  0.021127 -0.038907)
201:   1673.67   0.077105  389.66  0.014377  ( 0.043775 -0.111557  0.003918)
202:   1712.37   0.057868  292.44  0.010546  (-0.000604  0.069490  0.075608)
203:   1721.39   0.021626  109.29  0.003920  ( 0.009231  0.050446  0.035922)
204:   2780.74   0.256409  1295.79  0.028775  (-0.129655 -0.106305 -0.025764)
205:   2850.54   0.033322  168.39  0.003648  ( 0.054407  0.016869  0.020081)
206:   2878.52   0.008868   44.81  0.000961  (-0.025017 -0.017440  0.005600)
207:   2881.92   0.003509   17.73  0.000380  (-0.000372  0.019480 -0.000616)
208:   2885.58   0.012980   65.60  0.001404  (-0.016082  0.010610  0.032133)
209:   2915.05   0.003624   18.32  0.000388  (-0.012389  0.006292  0.013961)
210:   2925.71   0.006709   33.91  0.000716  ( 0.004865  0.015301  0.021397)
211:   2933.82   0.004782   24.16  0.000509  ( 0.012938 -0.012016 -0.014030)
212:   2935.03   0.010243   51.77  0.001089  ( 0.018320  0.023706  0.013839)
213:   2940.59   0.010772   54.44  0.001143  ( 0.006249  0.022719  0.024248)
214:   2964.43   0.002054   10.38  0.000216  (-0.013917  0.001084  0.004622)
215:   2969.56   0.003268   16.52  0.000343  ( 0.000098 -0.014785  0.011172)
216:   2974.33   0.005157   26.06  0.000541  ( 0.013705  0.000134 -0.018794)
217:   2975.40   0.001154    5.83  0.000121  (-0.000025  0.000733  0.010978)
218:   3072.84   0.006428   32.48  0.000653  (-0.013976  0.000749 -0.021374)
219:   3074.06   0.002156   10.89  0.000219  (-0.001611 -0.014462  0.002661)
220:   3091.35   0.000756    3.82  0.000076  ( 0.005187  0.000115  0.007029)
221:   3096.66   0.159135  804.20  0.016037  ( 0.001386 -0.090743 -0.088320)
222:   3114.24   0.012608   63.72  0.001263  ( 0.020371 -0.015157  0.024874)
223:   3129.35   0.001523    7.70  0.000152  (-0.011622 -0.001428 -0.003846)
224:   3165.97   0.000383    1.94  0.000038  ( 0.002904  0.005347  0.000846)
225:   3187.23   0.131851  666.32  0.012910  (-0.110406  0.008797  0.025353)
226:   3375.83   0.084047  424.74  0.007769  ( 0.086259 -0.009538  0.015422)
227:   3429.84   0.017078   86.30  0.001554  (-0.027208  0.027133  0.008793)
228:   3478.02   0.000683    3.45  0.000061  (-0.006229  0.002741 -0.003863)
229:   3490.14   0.018396   92.97  0.001645  (-0.040493 -0.000589 -0.002187)
230:   3493.16   0.010943   55.30  0.000978  (-0.015351 -0.000734  0.027229)
231:   3556.13   0.000026    0.13  0.000002  ( 0.000895  0.000518 -0.001087)
232:   3568.30   0.003546   17.92  0.000310  ( 0.001396 -0.016654 -0.005553)
233:   3619.36   0.011737   59.31  0.001012  (-0.025572  0.016657  0.008978)

--------------------------
THERMOCHEMISTRY AT 298.15K
--------------------------

Temperature         ... 298.15 K
Pressure            ... 1.00 atm
Total Mass          ... 745.43 AMU

Throughout the following assumptions are being made:
  (1) The electronic state is orbitally nondegenerate
  (2) There are no thermally accessible electronically excited states
  (3) Hindered rotations indicated by low frequency modes are not
      treated as such but are treated as vibrations and this may
      cause some error
  (4) All equations used are the standard statistical mechanics
      equations for an ideal gas
  (5) All vibrations are strictly harmonic

freq.       5.33  E(vib)   ...       0.58
freq.       7.57  E(vib)   ...       0.58
freq.      12.86  E(vib)   ...       0.57
freq.      16.70  E(vib)   ...       0.57
freq.      19.50  E(vib)   ...       0.57
freq.      28.15  E(vib)   ...       0.55
freq.      30.35  E(vib)   ...       0.55
freq.      36.61  E(vib)   ...       0.54
freq.      40.46  E(vib)   ...       0.54
freq.      46.23  E(vib)   ...       0.53
freq.      62.57  E(vib)   ...       0.51
freq.      65.25  E(vib)   ...       0.50
freq.      72.62  E(vib)   ...       0.49
freq.      77.00  E(vib)   ...       0.49
freq.      84.60  E(vib)   ...       0.48
freq.      98.84  E(vib)   ...       0.46
freq.     106.01  E(vib)   ...       0.45
freq.     108.65  E(vib)   ...       0.45
freq.     112.83  E(vib)   ...       0.45
freq.     115.83  E(vib)   ...       0.44
freq.     122.15  E(vib)   ...       0.43
freq.     130.09  E(vib)   ...       0.43
freq.     132.87  E(vib)   ...       0.42
freq.     143.35  E(vib)   ...       0.41
freq.     149.94  E(vib)   ...       0.40
freq.     160.72  E(vib)   ...       0.39
freq.     166.87  E(vib)   ...       0.39
freq.     171.21  E(vib)   ...       0.38
freq.     182.12  E(vib)   ...       0.37
freq.     187.51  E(vib)   ...       0.36
freq.     192.59  E(vib)   ...       0.36
freq.     203.38  E(vib)   ...       0.35
freq.     210.89  E(vib)   ...       0.34
freq.     213.60  E(vib)   ...       0.34
freq.     221.65  E(vib)   ...       0.33
freq.     230.73  E(vib)   ...       0.32
freq.     236.38  E(vib)   ...       0.32
freq.     239.70  E(vib)   ...       0.31
freq.     260.55  E(vib)   ...       0.30
freq.     268.65  E(vib)   ...       0.29
freq.     283.00  E(vib)   ...       0.28
freq.     285.70  E(vib)   ...       0.28
freq.     293.00  E(vib)   ...       0.27
freq.     299.59  E(vib)   ...       0.26
freq.     305.13  E(vib)   ...       0.26
freq.     306.92  E(vib)   ...       0.26
freq.     320.04  E(vib)   ...       0.25
freq.     322.80  E(vib)   ...       0.25
freq.     339.80  E(vib)   ...       0.23
freq.     342.66  E(vib)   ...       0.23
freq.     347.01  E(vib)   ...       0.23
freq.     361.32  E(vib)   ...       0.22
freq.     365.68  E(vib)   ...       0.22
freq.     370.63  E(vib)   ...       0.21
freq.     374.81  E(vib)   ...       0.21
freq.     384.71  E(vib)   ...       0.20
freq.     388.79  E(vib)   ...       0.20
freq.     393.04  E(vib)   ...       0.20
freq.     397.86  E(vib)   ...       0.20
freq.     399.22  E(vib)   ...       0.19
freq.     407.34  E(vib)   ...       0.19
freq.     420.97  E(vib)   ...       0.18
freq.     440.76  E(vib)   ...       0.17
freq.     444.78  E(vib)   ...       0.17
freq.     459.05  E(vib)   ...       0.16
freq.     464.95  E(vib)   ...       0.16
freq.     474.75  E(vib)   ...       0.15
freq.     475.73  E(vib)   ...       0.15
freq.     490.20  E(vib)   ...       0.15
freq.     494.65  E(vib)   ...       0.14
freq.     506.21  E(vib)   ...       0.14
freq.     507.70  E(vib)   ...       0.14
freq.     515.89  E(vib)   ...       0.13
freq.     519.06  E(vib)   ...       0.13
freq.     526.13  E(vib)   ...       0.13
freq.     535.38  E(vib)   ...       0.13
freq.     541.83  E(vib)   ...       0.12
freq.     556.34  E(vib)   ...       0.12
freq.     569.51  E(vib)   ...       0.11
freq.     590.16  E(vib)   ...       0.10
freq.     590.56  E(vib)   ...       0.10
freq.     596.50  E(vib)   ...       0.10
freq.     606.85  E(vib)   ...       0.10
freq.     607.88  E(vib)   ...       0.10
freq.     625.11  E(vib)   ...       0.09
freq.     632.33  E(vib)   ...       0.09
freq.     643.59  E(vib)   ...       0.09
freq.     663.94  E(vib)   ...       0.08
freq.     682.98  E(vib)   ...       0.08
freq.     689.64  E(vib)   ...       0.07
freq.     709.53  E(vib)   ...       0.07
freq.     733.52  E(vib)   ...       0.06
freq.     735.38  E(vib)   ...       0.06
freq.     738.19  E(vib)   ...       0.06
freq.     742.22  E(vib)   ...       0.06
freq.     751.10  E(vib)   ...       0.06
freq.     762.04  E(vib)   ...       0.06
freq.     765.16  E(vib)   ...       0.06
freq.     782.86  E(vib)   ...       0.05
freq.     795.66  E(vib)   ...       0.05
freq.     812.76  E(vib)   ...       0.05
freq.     832.00  E(vib)   ...       0.04
freq.     832.51  E(vib)   ...       0.04
freq.     836.84  E(vib)   ...       0.04
freq.     841.73  E(vib)   ...       0.04
freq.     862.75  E(vib)   ...       0.04
freq.     877.06  E(vib)   ...       0.04
freq.     886.21  E(vib)   ...       0.04
freq.     886.84  E(vib)   ...       0.04
freq.     887.97  E(vib)   ...       0.04
freq.     892.23  E(vib)   ...       0.03
freq.     907.38  E(vib)   ...       0.03
freq.     909.94  E(vib)   ...       0.03
freq.     912.33  E(vib)   ...       0.03
freq.     918.63  E(vib)   ...       0.03
freq.     929.18  E(vib)   ...       0.03
freq.     929.96  E(vib)   ...       0.03
freq.     932.75  E(vib)   ...       0.03
freq.     949.62  E(vib)   ...       0.03
freq.     952.38  E(vib)   ...       0.03
freq.     956.18  E(vib)   ...       0.03
freq.     985.74  E(vib)   ...       0.02
freq.     994.88  E(vib)   ...       0.02
freq.    1007.15  E(vib)   ...       0.02
freq.    1015.20  E(vib)   ...       0.02
freq.    1016.51  E(vib)   ...       0.02
freq.    1017.64  E(vib)   ...       0.02
freq.    1022.50  E(vib)   ...       0.02
freq.    1024.96  E(vib)   ...       0.02
freq.    1027.69  E(vib)   ...       0.02
freq.    1041.69  E(vib)   ...       0.02
freq.    1046.13  E(vib)   ...       0.02
freq.    1058.25  E(vib)   ...       0.02
freq.    1064.35  E(vib)   ...       0.02
freq.    1070.40  E(vib)   ...       0.02
freq.    1080.33  E(vib)   ...       0.02
freq.    1093.32  E(vib)   ...       0.02
freq.    1094.56  E(vib)   ...       0.02
freq.    1099.54  E(vib)   ...       0.02
freq.    1105.65  E(vib)   ...       0.02
freq.    1117.22  E(vib)   ...       0.01
freq.    1120.10  E(vib)   ...       0.01
freq.    1142.43  E(vib)   ...       0.01
freq.    1143.63  E(vib)   ...       0.01

Rotational constants in cm-1:     0.003748     0.001024     0.000911

                             ****ORCA TERMINATED NORMALLY****
TOTAL RUN TIME: 0 days 0 hours 21 minutes 51 seconds 391 msec
