                         Program Version 5.0.3 -  RELEASE  -
|  1> ! XTB2 opt numfreq
|  2> * XYZ 0 1
|  3> O 3.9195 -1.8937 -0.5378
|  4> P 2.9028 -1.8876 0.5481
|  5> O 2.2576 -3.3200 0.8292
|  6> O 3.4704 -1.5006 1.9868
|  7> O 1.6248 -0.9502 0.3519
|  8> C 1.8781 0.4272 0.1071
|  9> C 0.5697 1.1946 -0.0539
| 10> O -0.1710 0.7006 -1.1891
| 11> C -1.5717 0.9114 -0.9272
| 12> O -2.0183 1.8812 -1.8696
| 13> C -2.3428 -0.4075 -1.1498
| 14> O -2.1825 -1.3208 -0.0600
| 15> C -1.6889 1.4828 0.5057
| 16> O -2.7869 1.0097 1.2920
| 17> C -0.3685 1.0699 1.1333
| 18> O -0.0059 1.9257 2.2114
| 19> H 1.9499 -3.7271 0.0000
| 20> H 4.2657 -2.0193 2.1993
| 21> H 2.4648 0.5058 -0.8145
| 22> H 2.4611 0.8400 0.9369
| 23> H 0.8103 2.2485 -0.2462
| 24> H -1.7759 1.5196 -2.7384
| 25> H -3.4136 -0.2097 -1.2685
| 26> H -1.9869 -0.9003 -2.0617
| 27> H -2.5367 -2.1776 -0.3610
| 28> H -1.7763 2.5760 0.4828
| 29> H -2.7484 0.0302 1.2558
| 30> H -0.4241 0.0466 1.5207
| 31> H -0.7765 1.9444 2.8108
| 32> *
| 33>
| 34>                          ****END OF INPUT****
FINAL SINGLE POINT ENERGY       -58.735126505930
FINAL SINGLE POINT ENERGY       -58.742088115050
FINAL SINGLE POINT ENERGY       -58.744596399230
FINAL SINGLE POINT ENERGY       -58.745301235520
FINAL SINGLE POINT ENERGY       -58.745760577970
FINAL SINGLE POINT ENERGY       -58.746183822120
FINAL SINGLE POINT ENERGY       -58.746627448040
FINAL SINGLE POINT ENERGY       -58.747139219700
FINAL SINGLE POINT ENERGY       -58.747719183480
FINAL SINGLE POINT ENERGY       -58.748343238460
FINAL SINGLE POINT ENERGY       -58.760871141670
FINAL SINGLE POINT ENERGY       -58.760932268830
FINAL SINGLE POINT ENERGY       -58.761009351740
FINAL SINGLE POINT ENERGY       -58.761042090620
FINAL SINGLE POINT ENERGY       -58.761054830010
FINAL SINGLE POINT ENERGY       -58.761070762360
FINAL SINGLE POINT ENERGY       -58.761078640690
FINAL SINGLE POINT ENERGY       -58.761086928180
FINAL SINGLE POINT ENERGY       -58.761091417020
                    ***********************HURRAY********************

CARTESIAN COORDINATES (ANGSTROEM)
---------------------------------
  O     2.726062   -1.290756   -1.089985
  P     2.240006   -1.658646    0.241395
  O     0.921798   -2.505647    0.384951
  O     3.212048   -2.623830    1.047042
  O     2.085094   -0.410882    1.259521
  C     2.078785    0.869324    0.684904
  C     0.685047    1.250194    0.208143
  O     0.183478    0.228574   -0.637372
  C    -1.198647    0.460916   -0.794207
  O    -1.423352    1.381546   -1.821010
  C    -1.882997   -0.871638   -1.140815
  O    -1.674741   -1.795902   -0.091105
  C    -1.693009    1.115805    0.531215
  O    -2.644103    0.391641    1.243133
  C    -0.376357    1.371602    1.307918
  O    -0.298365    2.629942    1.910867
  H     0.115510   -2.025881    0.143529
  H     4.084246   -2.584755    0.658588
  H     2.752426    0.883078   -0.176709
  H     2.406616    1.579203    1.446822
  H     0.733899    2.207231   -0.330223
  H    -0.877966    1.141502   -2.581830
  H    -2.951091   -0.672919   -1.284975
  H    -1.445038   -1.238268   -2.076156
  H    -2.014644   -2.658451   -0.354754
  H    -2.158824    2.072926    0.274471
  H    -2.336664   -0.521456    1.340845
  H    -0.230954    0.563753    2.042819
  H    -1.018463    2.711593    2.547078

FINAL SINGLE POINT ENERGY       -58.761093764420

VIBRATIONAL FREQUENCIES
-----------------------

Scaling factor for frequencies =  1.000000000 (already applied!)

   0:         0.00 cm**-1
   1:         0.00 cm**-1
   2:         0.00 cm**-1
   3:         0.00 cm**-1
   4:         0.00 cm**-1
   5:         0.00 cm**-1
   6:        23.35 cm**-1
   7:        49.04 cm**-1
   8:        54.23 cm**-1
   9:        99.04 cm**-1
  10:       118.30 cm**-1
  11:       147.60 cm**-1
  12:       174.31 cm**-1
  13:       184.66 cm**-1
  14:       205.95 cm**-1
  15:       215.48 cm**-1
  16:       232.20 cm**-1
  17:       256.59 cm**-1
  18:       278.30 cm**-1
  19:       283.20 cm**-1
  20:       310.22 cm**-1
  21:       318.52 cm**-1
  22:       323.35 cm**-1
  23:       335.75 cm**-1
  24:       362.02 cm**-1
  25:       391.32 cm**-1
  26:       404.33 cm**-1
  27:       412.28 cm**-1
  28:       430.23 cm**-1
  29:       455.70 cm**-1
  30:       473.34 cm**-1
  31:       500.55 cm**-1
  32:       503.68 cm**-1
  33:       535.71 cm**-1
  34:       569.75 cm**-1
  35:       587.82 cm**-1
  36:       626.51 cm**-1
  37:       672.24 cm**-1
  38:       731.38 cm**-1
  39:       824.42 cm**-1
  40:       826.85 cm**-1
  41:       875.39 cm**-1
  42:       899.19 cm**-1
  43:       904.16 cm**-1
  44:       938.24 cm**-1
  45:       945.20 cm**-1
  46:       958.00 cm**-1
  47:      1003.08 cm**-1
  48:      1044.53 cm**-1
  49:      1065.48 cm**-1
  50:      1071.94 cm**-1
  51:      1089.02 cm**-1
  52:      1108.28 cm**-1
  53:      1131.52 cm**-1
  54:      1138.16 cm**-1
  55:      1141.03 cm**-1
  56:      1146.61 cm**-1
  57:      1176.12 cm**-1
  58:      1190.29 cm**-1
  59:      1206.04 cm**-1
  60:      1216.92 cm**-1
  61:      1232.22 cm**-1
  62:      1237.68 cm**-1
  63:      1261.31 cm**-1
  64:      1271.38 cm**-1
  65:      1275.87 cm**-1
  66:      1299.00 cm**-1
  67:      1311.22 cm**-1
  68:      1334.35 cm**-1
  69:      1347.73 cm**-1
  70:      1356.49 cm**-1
  71:      1357.97 cm**-1
  72:      1422.58 cm**-1
  73:      1450.21 cm**-1
  74:      2862.48 cm**-1
  75:      2896.38 cm**-1
  76:      2931.14 cm**-1
  77:      2945.74 cm**-1
  78:      2946.36 cm**-1
  79:      2965.41 cm**-1
  80:      2977.82 cm**-1
  81:      3335.97 cm**-1
  82:      3458.41 cm**-1
  83:      3506.22 cm**-1
  84:      3536.07 cm**-1
  85:      3539.52 cm**-1
  86:      3631.49 cm**-1

IR SPECTRUM
-----------

 Mode   freq       eps      Int      T**2         TX        TY        TZ
       cm**-1   L/(mol*cm) km/mol    a.u.
----------------------------------------------------------------------------
  6:     23.35   0.001945    9.83  0.025987  ( 0.024575  0.079937 -0.137817)
  7:     49.04   0.000875    4.42  0.005566  ( 0.048654 -0.056506  0.002329)
  8:     54.23   0.000397    2.01  0.002286  (-0.022663  0.025299 -0.033650)
  9:     99.04   0.000665    3.36  0.002097  (-0.001480  0.041284  0.019748)
 10:    118.30   0.000217    1.10  0.000573  (-0.021554 -0.008844  0.005512)
 11:    147.60   0.000362    1.83  0.000765  (-0.027070 -0.004648 -0.003301)
 12:    174.31   0.000871    4.40  0.001559  (-0.026387 -0.011357 -0.027085)
 13:    184.66   0.008884   44.90  0.015014  ( 0.023841 -0.086331 -0.083621)
 14:    205.95   0.006946   35.10  0.010525  ( 0.068683  0.057266  0.050281)
 15:    215.48   0.001943    9.82  0.002814  (-0.050026 -0.006568  0.016377)
 16:    232.20   0.000771    3.90  0.001037  (-0.008632  0.028607  0.011990)
 17:    256.59   0.006226   31.46  0.007572  ( 0.006326 -0.052815 -0.068867)
 18:    278.30   0.014516   73.36  0.016277  ( 0.118776  0.003536  0.046437)
 19:    283.20   0.003025   15.29  0.003334  (-0.034939 -0.038732  0.024756)
 20:    310.22   0.001554    7.85  0.001563  (-0.033254  0.006804 -0.020273)
 21:    318.52   0.022437  113.39  0.021982  (-0.143458 -0.026559  0.026392)
 22:    323.35   0.010666   53.90  0.010294  (-0.001202  0.049614  0.088491)
 23:    335.75   0.031467  159.02  0.029247  (-0.130077  0.072980 -0.083668)
 24:    362.02   0.007490   37.85  0.006456  (-0.065831  0.017871  0.042461)
 25:    391.32   0.005596   28.28  0.004462  (-0.006524  0.062802  0.021809)
 26:    404.33   0.015516   78.41  0.011975  ( 0.092481 -0.035802 -0.046267)
 27:    412.28   0.012524   63.29  0.009480  ( 0.080769 -0.016230  0.051889)
 28:    430.23   0.001920    9.70  0.001393  (-0.034886  0.004169  0.012585)
 29:    455.70   0.026937  136.13  0.018447  (-0.101690 -0.040510 -0.080403)
 30:    473.34   0.015283   77.23  0.010076  (-0.040567 -0.086924 -0.029565)
 31:    500.55   0.008001   40.43  0.004988  (-0.048587 -0.016062 -0.048677)
 32:    503.68   0.003419   17.28  0.002118  ( 0.026703  0.014954  0.034371)
 33:    535.71   0.006738   34.05  0.003925  (-0.041494 -0.045132  0.012911)
 34:    569.75   0.026547  134.16  0.014541  (-0.039010  0.040277  0.106754)
 35:    587.82   0.000643    3.25  0.000341  ( 0.007535 -0.014985 -0.007740)
 36:    626.51   0.002475   12.51  0.001233  (-0.011513 -0.022880  0.024019)
 37:    672.24   0.011281   57.01  0.005237  ( 0.011499  0.024059  0.067273)
 38:    731.38   0.033427  168.93  0.014263  (-0.041429  0.085052  0.072888)
 39:    824.42   0.022833  115.39  0.008643  ( 0.070836 -0.053543  0.027539)
 40:    826.85   0.015176   76.69  0.005728  ( 0.026521 -0.070548  0.006888)
 41:    875.39   0.073268  370.27  0.026119  (-0.136132 -0.048535 -0.072329)
 42:    899.19   0.009846   49.76  0.003417  (-0.011088  0.050066  0.028064)
 43:    904.16   0.000580    2.93  0.000200  ( 0.007352  0.006853  0.009958)
 44:    938.24   0.025740  130.08  0.008561  (-0.021779  0.089697 -0.006436)
 45:    945.20   0.063096  318.86  0.020832  ( 0.000706 -0.140621  0.032508)
 46:    958.00   0.010658   53.86  0.003472  ( 0.034812  0.042587  0.021125)
 47:   1003.08   0.006097   30.81  0.001897  (-0.005210  0.005910 -0.042835)
 48:   1044.53   0.033235  167.96  0.009929  (-0.093218  0.007677 -0.034364)
 49:   1065.48   0.008573   43.32  0.002511  ( 0.019923  0.017341 -0.042582)
 50:   1071.94   0.006825   34.49  0.001987  (-0.032456  0.011917 -0.028131)
 51:   1089.02   0.028728  145.18  0.008232  (-0.003660  0.067810 -0.060170)
 52:   1108.28   0.002700   13.65  0.000760  (-0.009194 -0.010853  0.023623)
 53:   1131.52   0.038891  196.54  0.010726  ( 0.041806  0.094323  0.009018)
 54:   1138.16   0.014824   74.91  0.004064  (-0.006790  0.001920  0.063362)
 55:   1141.03   0.002632   13.30  0.000720  ( 0.015755  0.002736 -0.021544)
 56:   1146.61   0.032823  165.88  0.008933  (-0.042090  0.084310 -0.007314)
 57:   1176.12   0.007647   38.64  0.002029  (-0.038709 -0.022281 -0.005841)
 58:   1190.29   0.001963    9.92  0.000515  (-0.015895  0.006234  0.014938)
 59:   1206.04   0.004074   20.59  0.001054  (-0.018996 -0.011648  0.023615)
 60:   1216.92   0.005803   29.33  0.001488  (-0.025745  0.007587  0.027709)
 61:   1232.22   0.007409   37.44  0.001876  (-0.001094  0.013397  0.041178)
 62:   1237.68   0.003099   15.66  0.000781  (-0.004540  0.005338  0.027062)
 63:   1261.31   0.069457  351.01  0.017184  ( 0.037084  0.042981 -0.118161)
 64:   1271.38   0.025810  130.43  0.006335  ( 0.017680  0.068478 -0.036514)
 65:   1275.87   0.004199   21.22  0.001027  (-0.009933  0.004557  0.030128)
 66:   1299.00   0.024134  121.96  0.005798  (-0.063032  0.041371 -0.010640)
 67:   1311.22   0.009840   49.73  0.002342  ( 0.019495  0.041050  0.016635)
 68:   1334.35   0.001706    8.62  0.000399  ( 0.000329  0.005539  0.019190)
 69:   1347.73   0.016657   84.18  0.003857  ( 0.037120  0.009487 -0.048878)
 70:   1356.49   0.004949   25.01  0.001139  (-0.001031  0.020621 -0.026688)
 71:   1357.97   0.002626   13.27  0.000603  (-0.023826  0.001930  0.005663)
 72:   1422.58   0.003666   18.53  0.000804  (-0.017952 -0.001529 -0.021900)
 73:   1450.21   0.004427   22.37  0.000953  ( 0.002010 -0.025879 -0.016697)
 74:   2862.48   0.008189   41.38  0.000893  (-0.012953  0.017541 -0.020427)
 75:   2896.38   0.012558   63.46  0.001353  ( 0.015429  0.022949 -0.024255)
 76:   2931.14   0.011633   58.79  0.001239  ( 0.018529 -0.025688 -0.015341)
 77:   2945.74   0.006671   33.71  0.000707  ( 0.010257  0.000310  0.024523)
 78:   2946.36   0.011529   58.26  0.001221  (-0.023088 -0.023453  0.011744)
 79:   2965.41   0.008753   44.23  0.000921  (-0.012362  0.025595 -0.010638)
 80:   2977.82   0.013596   68.71  0.001425  (-0.015301 -0.023339 -0.025417)
 81:   3335.97   0.111385  562.90  0.010420  (-0.092920  0.035882 -0.022313)
 82:   3458.41   0.014548   73.52  0.001313  (-0.004135 -0.034468 -0.010371)
 83:   3506.22   0.003856   19.49  0.000343  (-0.010066 -0.009052  0.012646)
 84:   3536.07   0.011941   60.35  0.001054  (-0.023218 -0.013251  0.018416)
 85:   3539.52   0.003829   19.35  0.000338  (-0.001854  0.017701  0.004561)
 86:   3631.49   0.016417   82.96  0.001411  ( 0.033711 -0.016028 -0.004170)

--------------------------
THERMOCHEMISTRY AT 298.15K
--------------------------

Temperature         ... 298.15 K
Pressure            ... 1.00 atm
Total Mass          ... 260.13 AMU

Throughout the following assumptions are being made:
  (1) The electronic state is orbitally nondegenerate
  (2) There are no thermally accessible electronically excited states
  (3) Hindered rotations indicated by low frequency modes are not
      treated as such but are treated as vibrations and this may
      cause some error
  (4) All equations used are the standard statistical mechanics
      equations for an ideal gas
  (5) All vibrations are strictly harmonic

freq.      23.35  E(vib)   ...       0.56
freq.      49.04  E(vib)   ...       0.53
freq.      54.23  E(vib)   ...       0.52
freq.      99.04  E(vib)   ...       0.46
freq.     118.30  E(vib)   ...       0.44
freq.     147.60  E(vib)   ...       0.41
freq.     174.31  E(vib)   ...       0.38
freq.     184.66  E(vib)   ...       0.37
freq.     205.95  E(vib)   ...       0.35
freq.     215.48  E(vib)   ...       0.34
freq.     232.20  E(vib)   ...       0.32
freq.     256.59  E(vib)   ...       0.30
freq.     278.30  E(vib)   ...       0.28
freq.     283.20  E(vib)   ...       0.28
freq.     310.22  E(vib)   ...       0.26
freq.     318.52  E(vib)   ...       0.25
freq.     323.35  E(vib)   ...       0.25
freq.     335.75  E(vib)   ...       0.24
freq.     362.02  E(vib)   ...       0.22
freq.     391.32  E(vib)   ...       0.20
freq.     404.33  E(vib)   ...       0.19
freq.     412.28  E(vib)   ...       0.19
freq.     430.23  E(vib)   ...       0.18
freq.     455.70  E(vib)   ...       0.16
freq.     473.34  E(vib)   ...       0.15
freq.     500.55  E(vib)   ...       0.14
freq.     503.68  E(vib)   ...       0.14
freq.     535.71  E(vib)   ...       0.12
freq.     569.75  E(vib)   ...       0.11
freq.     587.82  E(vib)   ...       0.10
freq.     626.51  E(vib)   ...       0.09
freq.     672.24  E(vib)   ...       0.08
freq.     731.38  E(vib)   ...       0.06
freq.     824.42  E(vib)   ...       0.04
freq.     826.85  E(vib)   ...       0.04
freq.     875.39  E(vib)   ...       0.04
freq.     899.19  E(vib)   ...       0.03
freq.     904.16  E(vib)   ...       0.03
freq.     938.24  E(vib)   ...       0.03
freq.     945.20  E(vib)   ...       0.03
freq.     958.00  E(vib)   ...       0.03
freq.    1003.08  E(vib)   ...       0.02
freq.    1044.53  E(vib)   ...       0.02
freq.    1065.48  E(vib)   ...       0.02
freq.    1071.94  E(vib)   ...       0.02
freq.    1089.02  E(vib)   ...       0.02
freq.    1108.28  E(vib)   ...       0.02
freq.    1131.52  E(vib)   ...       0.01
freq.    1138.16  E(vib)   ...       0.01
freq.    1141.03  E(vib)   ...       0.01
freq.    1146.61  E(vib)   ...       0.01
freq.    1176.12  E(vib)   ...       0.01
freq.    1190.29  E(vib)   ...       0.01
freq.    1206.04  E(vib)   ...       0.01
freq.    1216.92  E(vib)   ...       0.01
freq.    1232.22  E(vib)   ...       0.01
freq.    1237.68  E(vib)   ...       0.01
freq.    1261.31  E(vib)   ...       0.01
freq.    1271.38  E(vib)   ...       0.01
freq.    1275.87  E(vib)   ...       0.01
freq.    1299.00  E(vib)   ...       0.01
freq.    1311.22  E(vib)   ...       0.01
freq.    1334.35  E(vib)   ...       0.01
freq.    1347.73  E(vib)   ...       0.01
freq.    1356.49  E(vib)   ...       0.01
freq.    1357.97  E(vib)   ...       0.01
freq.    1422.58  E(vib)   ...       0.00
freq.    1450.21  E(vib)   ...       0.00
freq.    2862.48  E(vib)   ...       0.00
freq.    2896.38  E(vib)   ...       0.00
freq.    2931.14  E(vib)   ...       0.00
freq.    2945.74  E(vib)   ...       0.00
freq.    2946.36  E(vib)   ...       0.00
freq.    2965.41  E(vib)   ...       0.00
freq.    2977.82  E(vib)   ...       0.00
freq.    3335.97  E(vib)   ...       0.00
freq.    3458.41  E(vib)   ...       0.00
freq.    3506.22  E(vib)   ...       0.00
freq.    3536.07  E(vib)   ...       0.00
freq.    3539.52  E(vib)   ...       0.00
freq.    3631.49  E(vib)   ...       0.00

------------
INNER ENERGY
------------

The inner energy is: U= E(el) + E(ZPE) + E(vib) + E(rot) + E(trans)
    E(el)   - is the total energy from the electronic structure calculation
              = E(kin-el) + E(nuc-el) + E(el-el) + E(nuc-nuc)
    E(ZPE)  - the the zero temperature vibrational energy from the frequency calculation
    E(vib)  - the the finite temperature correction to E(ZPE) due to population
              of excited vibrational states
    E(rot)  - is the rotational thermal energy
    E(trans)- is the translational thermal energy

Summary of contributions to the inner energy U:
Electronic energy                ...    -58.76109376 Eh
Zero point energy                ...      0.21154706 Eh     132.75 kcal/mol
Thermal vibrational correction   ...      0.01469164 Eh       9.22 kcal/mol
Thermal rotational correction    ...      0.00141627 Eh       0.89 kcal/mol
Thermal translational correction ...      0.00141627 Eh       0.89 kcal/mol
-----------------------------------------------------------------------
Total thermal energy                    -58.53202252 Eh

Summary of corrections to the electronic energy:
(perhaps to be used in another calculation)
Total thermal correction                  0.01752418 Eh      11.00 kcal/mol
Non-thermal (ZPE) correction              0.21154706 Eh     132.75 kcal/mol
-----------------------------------------------------------------------
Total correction                          0.22907124 Eh     143.74 kcal/mol

--------
ENTHALPY
--------

The enthalpy is H = U + kB*T
                kB is Boltzmann's constant
Total free energy                 ...    -58.53202252 Eh
Thermal Enthalpy correction       ...      0.00094421 Eh       0.59 kcal/mol
-----------------------------------------------------------------------
Total Enthalpy                    ...    -58.53107832 Eh

Note: Only C1 symmetry has been detected, increase convergence thresholds
      if your molecule has a higher symmetry. Symmetry factor of 1.0 is
      used for the rotational entropy correction.

Note: Rotational entropy computed according to Herzberg
Infrared and Raman Spectra, Chapter V,1, Van Nostrand Reinhold, 1945
Point Group:  C1, Symmetry Number:   1
Rotational constants in cm-1:     0.024816     0.012510     0.010719

Vibrational entropy computed according to the QRRHO of S. Grimme
Chem.Eur.J. 2012 18 9955

-------
ENTROPY
-------

The entropy contributions are T*S = T*(S(el)+S(vib)+S(rot)+S(trans))

                             ****ORCA TERMINATED NORMALLY****
TOTAL RUN TIME: 0 days 0 hours 7 minutes 14 seconds 954 msec
