                         Program Version 5.0.3 -  RELEASE  -
|  1> ! XTB2 opt numfreq
|  2> * XYZ 0 1
|  3> O -2.4717 1.5459 1.2627
|  4> C -2.7057 0.4516 0.7551
|  5> C -1.7120 -0.3269 -0.0835
|  6> O -1.7638 -1.7031 0.2930
|  7> C -0.2985 0.2124 0.1120
|  8> O 0.5888 -0.5681 -0.6798
|  9> P 2.1268 -0.1446 -0.7717
| 10> O 3.0263 -1.0463 -1.5414
| 11> O 2.1827 1.3943 -1.1752
| 12> O 2.6081 -0.0590 0.7500
| 13> H -3.7079 -0.0034 0.8375
| 14> H -2.0156 -0.2648 -1.1334
| 15> H -0.9646 -2.1150 -0.0903
| 16> H -0.2391 1.2632 -0.1889
| 17> H 0.0052 0.1230 1.1607
| 18> H 2.0433 1.9766 -0.4077
| 19> H 3.2976 -0.7360 0.9009
| 20> *
| 21>
| 22>                          ****END OF INPUT****
FINAL SINGLE POINT ENERGY       -37.012173882000
FINAL SINGLE POINT ENERGY       -37.017869862490
FINAL SINGLE POINT ENERGY       -37.019349593480
FINAL SINGLE POINT ENERGY       -37.020247492070
FINAL SINGLE POINT ENERGY       -37.020661499240
FINAL SINGLE POINT ENERGY       -37.020925449730
FINAL SINGLE POINT ENERGY       -37.021095282770
FINAL SINGLE POINT ENERGY       -37.021166251650
FINAL SINGLE POINT ENERGY       -37.021202517880
FINAL SINGLE POINT ENERGY       -37.021212786250
FINAL SINGLE POINT ENERGY       -37.021215844880
                    ***********************HURRAY********************

CARTESIAN COORDINATES (ANGSTROEM)
---------------------------------
  O    -2.762104    1.608079    0.843187
  C    -2.711160    0.416147    0.751749
  C    -1.680400   -0.343296   -0.056559
  O    -1.662897   -1.676438    0.372349
  C    -0.299130    0.317228    0.055722
  O     0.580782   -0.415195   -0.780385
  P     2.155036   -0.116227   -0.767445
  O     2.876319   -1.021122   -1.639319
  O     2.292978    1.435154   -1.077941
  O     2.563705   -0.182563    0.791523
  H    -3.429171   -0.254289    1.253139
  H    -1.994618   -0.285796   -1.115083
  H    -0.951633   -2.128778   -0.099172
  H    -0.367419    1.360424   -0.265326
  H     0.048245    0.273770    1.093369
  H     2.266053    1.988946   -0.298050
  H     3.075311   -0.976242    0.938242

FINAL SINGLE POINT ENERGY       -37.021217452070

VIBRATIONAL FREQUENCIES
-----------------------

Scaling factor for frequencies =  1.000000000 (already applied!)

   0:         0.00 cm**-1
   1:         0.00 cm**-1
   2:         0.00 cm**-1
   3:         0.00 cm**-1
   4:         0.00 cm**-1
   5:         0.00 cm**-1
   6:        16.77 cm**-1
   7:        34.66 cm**-1
   8:        73.12 cm**-1
   9:        96.77 cm**-1
  10:       106.50 cm**-1
  11:       153.07 cm**-1
  12:       192.61 cm**-1
  13:       204.03 cm**-1
  14:       252.75 cm**-1
  15:       320.41 cm**-1
  16:       331.46 cm**-1
  17:       372.10 cm**-1
  18:       390.90 cm**-1
  19:       420.27 cm**-1
  20:       426.93 cm**-1
  21:       439.53 cm**-1
  22:       479.65 cm**-1
  23:       585.71 cm**-1
  24:       765.92 cm**-1
  25:       798.67 cm**-1
  26:       823.02 cm**-1
  27:       825.97 cm**-1
  28:       884.18 cm**-1
  29:       903.47 cm**-1
  30:       918.40 cm**-1
  31:       994.74 cm**-1
  32:      1070.15 cm**-1
  33:      1076.56 cm**-1
  34:      1140.76 cm**-1
  35:      1158.34 cm**-1
  36:      1203.96 cm**-1
  37:      1248.32 cm**-1
  38:      1302.34 cm**-1
  39:      1320.26 cm**-1
  40:      1326.74 cm**-1
  41:      1337.60 cm**-1
  42:      1453.94 cm**-1
  43:      1797.47 cm**-1
  44:      2811.65 cm**-1
  45:      2827.35 cm**-1
  46:      2936.73 cm**-1
  47:      2949.83 cm**-1
  48:      3515.53 cm**-1
  49:      3602.04 cm**-1
  50:      3638.20 cm**-1

IR SPECTRUM
-----------

 Mode   freq       eps      Int      T**2         TX        TY        TZ
       cm**-1   L/(mol*cm) km/mol    a.u.
----------------------------------------------------------------------------
  6:     16.77   0.000385    1.95  0.007166  ( 0.082842  0.002841  0.017181)
  7:     34.66   0.001947    9.84  0.017529  ( 0.031468 -0.095581  0.086043)
  8:     73.12   0.002465   12.46  0.010519  (-0.088487 -0.024658 -0.045619)
  9:     96.77   0.004450   22.49  0.014349  ( 0.111818 -0.032931  0.027587)
 10:    106.50   0.000936    4.73  0.002744  (-0.012760 -0.013093  0.049090)
 11:    153.07   0.008723   44.08  0.017783  ( 0.097409 -0.084538  0.033876)
 12:    192.61   0.003475   17.56  0.005631  ( 0.066881 -0.022750 -0.025301)
 13:    204.03   0.005886   29.75  0.009003  ( 0.091758  0.023843  0.003832)
 14:    252.75   0.024404  123.33  0.030131  ( 0.151171  0.083960 -0.015134)
 15:    320.41   0.006818   34.46  0.006641  ( 0.070408  0.030269  0.027695)
 16:    331.46   0.007066   35.71  0.006652  ( 0.080173  0.009546  0.011560)
 17:    372.10   0.002753   13.91  0.002309  (-0.045260 -0.004365  0.015538)
 18:    390.90   0.021450  108.40  0.017124  (-0.089816 -0.068952 -0.065597)
 19:    420.27   0.008043   40.65  0.005972  (-0.017386 -0.025511  0.070846)
 20:    426.93   0.014179   71.65  0.010364  (-0.045664  0.072002 -0.055627)
 21:    439.53   0.027000  136.45  0.019170  (-0.116482 -0.036282 -0.065463)
 22:    479.65   0.006457   32.63  0.004201  (-0.061778  0.001502  0.019552)
 23:    585.71   0.001123    5.68  0.000598  (-0.000912  0.009618  0.022476)
 24:    765.92   0.009777   49.41  0.003984  ( 0.026388  0.008351  0.056724)
 25:    798.67   0.036380  183.85  0.014215  (-0.110627 -0.001150 -0.044442)
 26:    823.02   0.017713   89.51  0.006716  (-0.081405 -0.005902  0.007391)
 27:    825.97   0.041836  211.42  0.015806  (-0.104896 -0.068968  0.006831)
 28:    884.18   0.096092  485.61  0.033915  (-0.023132 -0.133730  0.124483)
 29:    903.47   0.027786  140.42  0.009597  (-0.037263 -0.031343 -0.085008)
 30:    918.40   0.008550   43.21  0.002905  ( 0.041412  0.034138  0.004984)
 31:    994.74   0.008419   42.55  0.002641  (-0.023020  0.001688  0.045919)
 32:   1070.15   0.002551   12.89  0.000744  (-0.008022  0.022923 -0.012415)
 33:   1076.56   0.033505  169.32  0.009712  ( 0.083563 -0.027080 -0.044678)
 34:   1140.76   0.012581   63.58  0.003442  (-0.014935  0.056119 -0.008314)
 35:   1158.34   0.011331   57.26  0.003053  (-0.035162 -0.034177  0.025458)
 36:   1203.96   0.003427   17.32  0.000888  ( 0.010195 -0.002148  0.027922)
 37:   1248.32   0.010882   54.99  0.002720  ( 0.019473 -0.046896 -0.011916)
 38:   1302.34   0.004002   20.22  0.000959  ( 0.009049  0.020562 -0.021314)
 39:   1320.26   0.070098  354.25  0.016569  (-0.061164  0.066560  0.091639)
 40:   1326.74   0.011959   60.44  0.002813  (-0.013998  0.050741  0.006504)
 41:   1337.60   0.000986    4.98  0.000230  ( 0.003726  0.012869 -0.007109)
 42:   1453.94   0.000410    2.07  0.000088  (-0.006120  0.006340  0.003202)
 43:   1797.47   0.046745  236.23  0.008116  (-0.028485  0.081862  0.024550)
 44:   2811.65   0.003291   16.63  0.000365  (-0.014548 -0.000204 -0.012391)
 45:   2827.35   0.014847   75.03  0.001639  ( 0.028807  0.024532 -0.014389)
 46:   2936.73   0.007329   37.04  0.000779  (-0.016331  0.004465 -0.022183)
 47:   2949.83   0.003317   16.76  0.000351  (-0.008583  0.015852  0.005089)
 48:   3515.53   0.005886   29.75  0.000523  (-0.017626  0.010893  0.009653)
 49:   3602.04   0.014734   74.46  0.001277  (-0.016390 -0.019160 -0.025314)
 50:   3638.20   0.012201   61.66  0.001047  ( 0.014155 -0.027425  0.009695)

--------------------------
THERMOCHEMISTRY AT 298.15K
--------------------------

Temperature         ... 298.15 K
Pressure            ... 1.00 atm
Total Mass          ... 170.06 AMU

Throughout the following assumptions are being made:
  (1) The electronic state is orbitally nondegenerate
  (2) There are no thermally accessible electronically excited states
  (3) Hindered rotations indicated by low frequency modes are not
      treated as such but are treated as vibrations and this may
      cause some error
  (4) All equations used are the standard statistical mechanics
      equations for an ideal gas
  (5) All vibrations are strictly harmonic

freq.      16.77  E(vib)   ...       0.57
freq.      34.66  E(vib)   ...       0.54
freq.      73.12  E(vib)   ...       0.49
freq.      96.77  E(vib)   ...       0.46
freq.     106.50  E(vib)   ...       0.45
freq.     153.07  E(vib)   ...       0.40
freq.     192.61  E(vib)   ...       0.36
freq.     204.03  E(vib)   ...       0.35
freq.     252.75  E(vib)   ...       0.30
freq.     320.41  E(vib)   ...       0.25
freq.     331.46  E(vib)   ...       0.24
freq.     372.10  E(vib)   ...       0.21
freq.     390.90  E(vib)   ...       0.20
freq.     420.27  E(vib)   ...       0.18
freq.     426.93  E(vib)   ...       0.18
freq.     439.53  E(vib)   ...       0.17
freq.     479.65  E(vib)   ...       0.15
freq.     585.71  E(vib)   ...       0.11
freq.     765.92  E(vib)   ...       0.06
freq.     798.67  E(vib)   ...       0.05
freq.     823.02  E(vib)   ...       0.05
freq.     825.97  E(vib)   ...       0.04
freq.     884.18  E(vib)   ...       0.04
freq.     903.47  E(vib)   ...       0.03
freq.     918.40  E(vib)   ...       0.03
freq.     994.74  E(vib)   ...       0.02
freq.    1070.15  E(vib)   ...       0.02
freq.    1076.56  E(vib)   ...       0.02
freq.    1140.76  E(vib)   ...       0.01
freq.    1158.34  E(vib)   ...       0.01
freq.    1203.96  E(vib)   ...       0.01
freq.    1248.32  E(vib)   ...       0.01
freq.    1302.34  E(vib)   ...       0.01
freq.    1320.26  E(vib)   ...       0.01
freq.    1326.74  E(vib)   ...       0.01
freq.    1337.60  E(vib)   ...       0.01
freq.    1453.94  E(vib)   ...       0.00
freq.    1797.47  E(vib)   ...       0.00
freq.    2811.65  E(vib)   ...       0.00
freq.    2827.35  E(vib)   ...       0.00
freq.    2936.73  E(vib)   ...       0.00
freq.    2949.83  E(vib)   ...       0.00
freq.    3515.53  E(vib)   ...       0.00
freq.    3602.04  E(vib)   ...       0.00
freq.    3638.20  E(vib)   ...       0.00

------------
INNER ENERGY
------------

The inner energy is: U= E(el) + E(ZPE) + E(vib) + E(rot) + E(trans)
    E(el)   - is the total energy from the electronic structure calculation
              = E(kin-el) + E(nuc-el) + E(el-el) + E(nuc-nuc)
    E(ZPE)  - the the zero temperature vibrational energy from the frequency calculation
    E(vib)  - the the finite temperature correction to E(ZPE) due to population
              of excited vibrational states
    E(rot)  - is the rotational thermal energy
    E(trans)- is the translational thermal energy

Summary of contributions to the inner energy U:
Electronic energy                ...    -37.02121745 Eh
Zero point energy                ...      0.11283625 Eh      70.81 kcal/mol
Thermal vibrational correction   ...      0.00964486 Eh       6.05 kcal/mol
Thermal rotational correction    ...      0.00141627 Eh       0.89 kcal/mol
Thermal translational correction ...      0.00141627 Eh       0.89 kcal/mol
-----------------------------------------------------------------------
Total thermal energy                    -36.89590380 Eh

Summary of corrections to the electronic energy:
(perhaps to be used in another calculation)
Total thermal correction                  0.01247740 Eh       7.83 kcal/mol
Non-thermal (ZPE) correction              0.11283625 Eh      70.81 kcal/mol
-----------------------------------------------------------------------
Total correction                          0.12531365 Eh      78.64 kcal/mol

--------
ENTHALPY
--------

The enthalpy is H = U + kB*T
                kB is Boltzmann's constant
Total free energy                 ...    -36.89590380 Eh
Thermal Enthalpy correction       ...      0.00094421 Eh       0.59 kcal/mol
-----------------------------------------------------------------------
Total Enthalpy                    ...    -36.89495960 Eh

Note: Only C1 symmetry has been detected, increase convergence thresholds
      if your molecule has a higher symmetry. Symmetry factor of 1.0 is
      used for the rotational entropy correction.

Note: Rotational entropy computed according to Herzberg
Infrared and Raman Spectra, Chapter V,1, Van Nostrand Reinhold, 1945
Point Group:  C1, Symmetry Number:   1
Rotational constants in cm-1:     0.078396     0.019123     0.017309

Vibrational entropy computed according to the QRRHO of S. Grimme
Chem.Eur.J. 2012 18 9955

-------
ENTROPY
-------

The entropy contributions are T*S = T*(S(el)+S(vib)+S(rot)+S(trans))
     S(el)   - electronic entropy
     S(vib)  - vibrational entropy
     S(rot)  - rotational entropy
     S(trans)- translational entropy
The entropies will be listed as multiplied by the temperature to get
units of energy

Electronic entropy                ...      0.00000000 Eh      0.00 kcal/mol
Vibrational entropy               ...      0.01758817 Eh     11.04 kcal/mol
Rotational entropy                ...      0.01449577 Eh      9.10 kcal/mol
Translational entropy             ...      0.01962323 Eh     12.31 kcal/mol
-----------------------------------------------------------------------
Final entropy term                ...      0.05170716 Eh     32.45 kcal/mol

In case the symmetry of your molecule has not been determined correctly
or in case you have a reason to use a different symmetry number we print
out the resulting rotational entropy values for sn=1,12 :
 --------------------------------------------------------
|  sn= 1 | S(rot)=       0.01449577 Eh      9.10 kcal/mol|
|  sn= 2 | S(rot)=       0.01384131 Eh      8.69 kcal/mol|
|  sn= 3 | S(rot)=       0.01345848 Eh      8.45 kcal/mol|
|  sn= 4 | S(rot)=       0.01318685 Eh      8.27 kcal/mol|
|  sn= 5 | S(rot)=       0.01297617 Eh      8.14 kcal/mol|
|  sn= 6 | S(rot)=       0.01280402 Eh      8.03 kcal/mol|
|  sn= 7 | S(rot)=       0.01265848 Eh      7.94 kcal/mol|
|  sn= 8 | S(rot)=       0.01253240 Eh      7.86 kcal/mol|
|  sn= 9 | S(rot)=       0.01242119 Eh      7.79 kcal/mol|
|  sn=10 | S(rot)=       0.01232171 Eh      7.73 kcal/mol|
|  sn=11 | S(rot)=       0.01223172 Eh      7.68 kcal/mol|
|  sn=12 | S(rot)=       0.01214957 Eh      7.62 kcal/mol|
 --------------------------------------------------------

-------------------
GIBBS FREE ENERGY
-------------------

                             ****ORCA TERMINATED NORMALLY****
TOTAL RUN TIME: 0 days 0 hours 4 minutes 6 seconds 738 msec
