                         Program Version 5.0.3 -  RELEASE  -
|  1> ! XTB2 opt numfreq
|  2> * XYZ 0 1
|  3> O 2.3214 0.8821 -0.4672
|  4> C 1.9476 -0.0777 0.2168
|  5> C 2.6457 -0.4397 1.5201
|  6> O 3.4917 0.6082 1.9705
|  7> C 0.8208 -1.0046 -0.2271
|  8> O 1.4219 -2.1789 -0.7802
|  9> C -0.0898 -0.3499 -1.2821
| 10> O 0.6639 -0.0972 -2.4801
| 11> C -0.7895 0.9275 -0.8036
| 12> O -1.3971 0.7443 0.4638
| 13> P -2.9279 0.2839 0.4818
| 14> O -3.2603 -0.9244 -0.3189
| 15> O -3.7607 1.5985 0.1486
| 16> O -3.2698 0.0898 2.0270
| 17> H 1.8979 -0.6259 2.2951
| 18> H 3.2493 -1.3378 1.3646
| 19> H 3.8723 1.0200 1.1701
| 20> H 0.2364 -1.2986 0.6506
| 21> H 1.5797 -1.9806 -1.7271
| 22> H -0.8490 -1.0889 -1.5621
| 23> H 1.3522 0.5643 -2.2514
| 24> H -1.5292 1.2504 -1.5463
| 25> H -0.0808 1.7577 -0.7204
| 26> H -3.6082 2.2917 0.8159
| 27> H -3.9384 -0.6142 2.1320
| 28> *
| 29>
| 30>                          ****END OF INPUT****
FINAL SINGLE POINT ENERGY       -51.478891196120
FINAL SINGLE POINT ENERGY       -51.485827576090
FINAL SINGLE POINT ENERGY       -51.488466952710
FINAL SINGLE POINT ENERGY       -51.489206087310
FINAL SINGLE POINT ENERGY       -51.489655043100
FINAL SINGLE POINT ENERGY       -51.489998527840
FINAL SINGLE POINT ENERGY       -51.490311096150
FINAL SINGLE POINT ENERGY       -51.490518186230
FINAL SINGLE POINT ENERGY       -51.490605874710
FINAL SINGLE POINT ENERGY       -51.490669849560
FINAL SINGLE POINT ENERGY       -51.492738398520
FINAL SINGLE POINT ENERGY       -51.492767756650
FINAL SINGLE POINT ENERGY       -51.492787790050
FINAL SINGLE POINT ENERGY       -51.492797325820
FINAL SINGLE POINT ENERGY       -51.492809826800
FINAL SINGLE POINT ENERGY       -51.492820558890
FINAL SINGLE POINT ENERGY       -51.492828824580
FINAL SINGLE POINT ENERGY       -51.492838086220
FINAL SINGLE POINT ENERGY       -51.492840011660
                    ***********************HURRAY********************

CARTESIAN COORDINATES (ANGSTROEM)
---------------------------------
  O     2.615264    0.276426   -0.621530
  C     1.825044   -0.135095    0.202745
  C     1.930332    0.269726    1.646055
  O     2.972605    1.169494    1.869457
  C     0.682799   -1.078665   -0.166204
  O     1.197323   -2.317017   -0.578341
  C    -0.119155   -0.433114   -1.328350
  O     0.658061   -0.454050   -2.491061
  C    -0.587235    0.986826   -0.982559
  O    -1.186638    1.050785    0.295493
  P    -2.673622    0.446905    0.429670
  O    -3.468832    0.413916   -0.786620
  O    -3.253242    1.308391    1.617774
  O    -2.412027   -0.998130    1.089330
  H     0.974740    0.722962    1.944425
  H     2.072622   -0.642170    2.245910
  H     3.469065    1.248006    1.038432
  H     0.041451   -1.263797    0.697611
  H     1.436377   -2.238439   -1.516106
  H    -0.996678   -1.056398   -1.536009
  H     1.489594    0.018905   -2.313166
  H    -1.301825    1.313843   -1.743177
  H     0.260349    1.678625   -0.958220
  H    -2.660604    1.365808    2.367218
  H    -2.965672   -1.653744    0.667622

FINAL SINGLE POINT ENERGY       -51.492841987060

VIBRATIONAL FREQUENCIES
-----------------------

Scaling factor for frequencies =  1.000000000 (already applied!)

   0:         0.00 cm**-1
   1:         0.00 cm**-1
   2:         0.00 cm**-1
   3:         0.00 cm**-1
   4:         0.00 cm**-1
   5:         0.00 cm**-1
   6:        24.23 cm**-1
   7:        30.01 cm**-1
   8:        32.66 cm**-1
   9:        64.65 cm**-1
  10:        88.81 cm**-1
  11:       120.76 cm**-1
  12:       127.63 cm**-1
  13:       172.83 cm**-1
  14:       197.61 cm**-1
  15:       207.94 cm**-1
  16:       216.41 cm**-1
  17:       247.00 cm**-1
  18:       264.62 cm**-1
  19:       268.59 cm**-1
  20:       314.33 cm**-1
  21:       321.79 cm**-1
  22:       331.93 cm**-1
  23:       349.16 cm**-1
  24:       362.07 cm**-1
  25:       403.54 cm**-1
  26:       411.52 cm**-1
  27:       457.95 cm**-1
  28:       464.80 cm**-1
  29:       502.54 cm**-1
  30:       543.88 cm**-1
  31:       565.21 cm**-1
  32:       577.06 cm**-1
  33:       729.27 cm**-1
  34:       755.78 cm**-1
  35:       795.86 cm**-1
  36:       836.35 cm**-1
  37:       846.83 cm**-1
  38:       890.34 cm**-1
  39:       893.87 cm**-1
  40:       906.88 cm**-1
  41:       932.40 cm**-1
  42:      1018.63 cm**-1
  43:      1042.32 cm**-1
  44:      1059.80 cm**-1
  45:      1096.88 cm**-1
  46:      1104.88 cm**-1
  47:      1112.35 cm**-1
  48:      1131.92 cm**-1
  49:      1160.39 cm**-1
  50:      1175.02 cm**-1
  51:      1198.59 cm**-1
  52:      1207.51 cm**-1
  53:      1209.90 cm**-1
  54:      1271.85 cm**-1
  55:      1287.27 cm**-1
  56:      1301.18 cm**-1
  57:      1327.21 cm**-1
  58:      1330.20 cm**-1
  59:      1334.49 cm**-1
  60:      1349.29 cm**-1
  61:      1420.97 cm**-1
  62:      1455.72 cm**-1
  63:      1727.20 cm**-1
  64:      2862.35 cm**-1
  65:      2902.88 cm**-1
  66:      2939.66 cm**-1
  67:      2953.58 cm**-1
  68:      2954.31 cm**-1
  69:      2992.26 cm**-1
  70:      3376.89 cm**-1
  71:      3402.32 cm**-1
  72:      3419.34 cm**-1
  73:      3600.12 cm**-1
  74:      3627.33 cm**-1

IR SPECTRUM
-----------

 Mode   freq       eps      Int      T**2         TX        TY        TZ
       cm**-1   L/(mol*cm) km/mol    a.u.
----------------------------------------------------------------------------
  6:     24.23   0.000384    1.94  0.004944  ( 0.005004  0.062189  0.032432)
  7:     30.01   0.000172    0.87  0.001793  ( 0.023786  0.016911 -0.030673)
  8:     32.66   0.000782    3.95  0.007472  (-0.010997  0.075607  0.040435)
  9:     64.65   0.000215    1.09  0.001040  (-0.023153 -0.004353  0.022023)
 10:     88.81   0.000324    1.64  0.001140  ( 0.024294 -0.001445  0.023407)
 11:    120.76   0.005297   26.77  0.013689  (-0.112694  0.019282 -0.024846)
 12:    127.63   0.001553    7.85  0.003797  ( 0.040773 -0.044560 -0.012190)
 13:    172.83   0.005352   27.05  0.009664  ( 0.084553 -0.030957 -0.039450)
 14:    197.61   0.010157   51.33  0.016039  (-0.071327  0.077199  0.070654)
 15:    207.94   0.000159    0.80  0.000238  (-0.010416  0.006622 -0.009267)
 16:    216.41   0.008547   43.19  0.012324  (-0.044462 -0.048214  0.089571)
 17:    247.00   0.007318   36.98  0.009246  ( 0.090002 -0.018298 -0.028478)
 18:    264.62   0.010459   52.85  0.012334  ( 0.050098  0.078496 -0.060521)
 19:    268.59   0.004499   22.73  0.005227  ( 0.064017  0.011526  0.031554)
 20:    314.33   0.009142   46.20  0.009076  (-0.062796 -0.037394  0.061109)
 21:    321.79   0.023807  120.31  0.023088  (-0.077635  0.113868 -0.063992)
 22:    331.93   0.002829   14.30  0.002660  ( 0.022028 -0.045553  0.009973)
 23:    349.16   0.014638   73.97  0.013083  ( 0.083568  0.077573 -0.009034)
 24:    362.07   0.004637   23.44  0.003997  (-0.027682 -0.047261 -0.031575)
 25:    403.54   0.014755   74.57  0.011410  (-0.103136 -0.017951 -0.021240)
 26:    411.52   0.013225   66.83  0.010029  (-0.006823 -0.093507 -0.035192)
 27:    457.95   0.018744   94.72  0.012773  ( 0.061487  0.067275 -0.066831)
 28:    464.80   0.002260   11.42  0.001517  (-0.003043  0.028589 -0.026282)
 29:    502.54   0.017606   88.98  0.010933  ( 0.067165 -0.076589  0.023581)
 30:    543.88   0.013818   69.83  0.007928  (-0.044166  0.023120 -0.073777)
 31:    565.21   0.008314   42.01  0.004590  (-0.027556  0.061798  0.003458)
 32:    577.06   0.018462   93.30  0.009984  (-0.070047  0.060253 -0.038039)
 33:    729.27   0.020833  105.28  0.008915  (-0.086741 -0.037042  0.004297)
 34:    755.78   0.000295    1.49  0.000122  ( 0.005487  0.009306 -0.002232)
 35:    795.86   0.061587  311.23  0.024149  (-0.065695 -0.125894  0.063114)
 36:    836.35   0.005024   25.39  0.001875  ( 0.012171 -0.041358 -0.004010)
 37:    846.83   0.000315    1.59  0.000116  (-0.009985 -0.003134 -0.002556)
 38:    890.34   0.041960  212.05  0.014707  (-0.071660  0.039354  0.089572)
 39:    893.87   0.017744   89.67  0.006195  ( 0.001580 -0.010692 -0.077960)
 40:    906.88   0.083059  419.75  0.028581  (-0.122740  0.112550  0.029128)
 41:    932.40   0.003565   18.02  0.001193  (-0.006816  0.032559  0.009316)
 42:   1018.63   0.013009   65.74  0.003985  (-0.024006 -0.036861 -0.045281)
 43:   1042.32   0.019318   97.63  0.005784  ( 0.029468  0.057439  0.040201)
 44:   1059.80   0.005646   28.53  0.001663  (-0.039356 -0.006180  0.008691)
 45:   1096.88   0.024017  121.37  0.006833  ( 0.008130  0.010576 -0.081577)
 46:   1104.88   0.035640  180.11  0.010066  (-0.055007  0.048391  0.068546)
 47:   1112.35   0.002965   14.98  0.000832  (-0.018058 -0.022193  0.003621)
 48:   1131.92   0.009089   45.93  0.002506  ( 0.038818  0.029916 -0.010193)
 49:   1160.39   0.004216   21.31  0.001134  (-0.020360  0.021350  0.016232)
 50:   1175.02   0.004552   23.00  0.001209  (-0.026074  0.022375 -0.005325)
 51:   1198.59   0.000594    3.00  0.000155  (-0.000471 -0.006755 -0.010437)
 52:   1207.51   0.009507   48.05  0.002457  (-0.020944 -0.042666  0.014071)
 53:   1209.90   0.021821  110.27  0.005628  ( 0.032123  0.037931  0.056192)
 54:   1271.85   0.007129   36.03  0.001749  (-0.032899 -0.012255 -0.022730)
 55:   1287.27   0.007851   39.68  0.001903  (-0.005898  0.042680 -0.006849)
 56:   1301.18   0.055281  279.37  0.013258  ( 0.073986 -0.003045  0.088174)
 57:   1327.21   0.012209   61.70  0.002871  (-0.043095 -0.030974 -0.007364)
 58:   1330.20   0.009276   46.88  0.002176  ( 0.006920 -0.003811  0.045975)
 59:   1334.49   0.017555   88.72  0.004105  (-0.010986  0.051119 -0.037031)
 60:   1349.29   0.019006   96.05  0.004396  (-0.013362  0.035372  0.054460)
 61:   1420.97   0.001899    9.60  0.000417  (-0.005285 -0.012371 -0.015364)
 62:   1455.72   0.001844    9.32  0.000395  ( 0.014039  0.014061  0.000730)
 63:   1727.20   0.049074  248.00  0.008867  ( 0.057696  0.024499 -0.070267)
 64:   2862.35   0.004450   22.49  0.000485  ( 0.002287  0.021758 -0.002553)
 65:   2902.88   0.006363   32.16  0.000684  (-0.023638 -0.009787 -0.005433)
 66:   2939.66   0.001684    8.51  0.000179  (-0.010514 -0.007981  0.002121)
 67:   2953.58   0.002580   13.04  0.000273  (-0.009231  0.006025 -0.012293)
 68:   2954.31   0.011377   57.49  0.001202  ( 0.029273  0.018530 -0.001192)
 69:   2992.26   0.002294   11.59  0.000239  (-0.015241 -0.002158  0.001518)
 70:   3376.89   0.013789   69.69  0.001274  ( 0.029135  0.009393  0.018364)
 71:   3402.32   0.008313   42.01  0.000762  (-0.002251  0.004929  0.027076)
 72:   3419.34   0.007628   38.55  0.000696  ( 0.005012 -0.002013  0.025825)
 73:   3600.12   0.012665   64.01  0.001098  ( 0.014963  0.007259  0.028658)
 74:   3627.33   0.016742   84.61  0.001440  (-0.008995 -0.030279 -0.021039)

--------------------------
THERMOCHEMISTRY AT 298.15K
--------------------------

Temperature         ... 298.15 K
Pressure            ... 1.00 atm
Total Mass          ... 230.11 AMU

Throughout the following assumptions are being made:
  (1) The electronic state is orbitally nondegenerate
  (2) There are no thermally accessible electronically excited states
  (3) Hindered rotations indicated by low frequency modes are not
      treated as such but are treated as vibrations and this may
      cause some error
  (4) All equations used are the standard statistical mechanics
      equations for an ideal gas
  (5) All vibrations are strictly harmonic

freq.      24.23  E(vib)   ...       0.56
freq.      30.01  E(vib)   ...       0.55
freq.      32.66  E(vib)   ...       0.55
freq.      64.65  E(vib)   ...       0.50
freq.      88.81  E(vib)   ...       0.47
freq.     120.76  E(vib)   ...       0.44
freq.     127.63  E(vib)   ...       0.43
freq.     172.83  E(vib)   ...       0.38
freq.     197.61  E(vib)   ...       0.35
freq.     207.94  E(vib)   ...       0.34
freq.     216.41  E(vib)   ...       0.34
freq.     247.00  E(vib)   ...       0.31
freq.     264.62  E(vib)   ...       0.29
freq.     268.59  E(vib)   ...       0.29
freq.     314.33  E(vib)   ...       0.25
freq.     321.79  E(vib)   ...       0.25
freq.     331.93  E(vib)   ...       0.24
freq.     349.16  E(vib)   ...       0.23
freq.     362.07  E(vib)   ...       0.22
freq.     403.54  E(vib)   ...       0.19
freq.     411.52  E(vib)   ...       0.19
freq.     457.95  E(vib)   ...       0.16
freq.     464.80  E(vib)   ...       0.16
freq.     502.54  E(vib)   ...       0.14
freq.     543.88  E(vib)   ...       0.12
freq.     565.21  E(vib)   ...       0.11
freq.     577.06  E(vib)   ...       0.11
freq.     729.27  E(vib)   ...       0.06
freq.     755.78  E(vib)   ...       0.06
freq.     795.86  E(vib)   ...       0.05
freq.     836.35  E(vib)   ...       0.04
freq.     846.83  E(vib)   ...       0.04
freq.     890.34  E(vib)   ...       0.04
freq.     893.87  E(vib)   ...       0.03
freq.     906.88  E(vib)   ...       0.03
freq.     932.40  E(vib)   ...       0.03
freq.    1018.63  E(vib)   ...       0.02
freq.    1042.32  E(vib)   ...       0.02
freq.    1059.80  E(vib)   ...       0.02
freq.    1096.88  E(vib)   ...       0.02
freq.    1104.88  E(vib)   ...       0.02
freq.    1112.35  E(vib)   ...       0.01
freq.    1131.92  E(vib)   ...       0.01
freq.    1160.39  E(vib)   ...       0.01
freq.    1175.02  E(vib)   ...       0.01
freq.    1198.59  E(vib)   ...       0.01
freq.    1207.51  E(vib)   ...       0.01
freq.    1209.90  E(vib)   ...       0.01
freq.    1271.85  E(vib)   ...       0.01
freq.    1287.27  E(vib)   ...       0.01
freq.    1301.18  E(vib)   ...       0.01
freq.    1327.21  E(vib)   ...       0.01
freq.    1330.20  E(vib)   ...       0.01
freq.    1334.49  E(vib)   ...       0.01
freq.    1349.29  E(vib)   ...       0.01
freq.    1420.97  E(vib)   ...       0.00
freq.    1455.72  E(vib)   ...       0.00
freq.    1727.20  E(vib)   ...       0.00
freq.    2862.35  E(vib)   ...       0.00
freq.    2902.88  E(vib)   ...       0.00
freq.    2939.66  E(vib)   ...       0.00
freq.    2953.58  E(vib)   ...       0.00
freq.    2954.31  E(vib)   ...       0.00
freq.    2992.26  E(vib)   ...       0.00
freq.    3376.89  E(vib)   ...       0.00
freq.    3402.32  E(vib)   ...       0.00
freq.    3419.34  E(vib)   ...       0.00
freq.    3600.12  E(vib)   ...       0.00
freq.    3627.33  E(vib)   ...       0.00

------------
INNER ENERGY
------------

The inner energy is: U= E(el) + E(ZPE) + E(vib) + E(rot) + E(trans)
    E(el)   - is the total energy from the electronic structure calculation
              = E(kin-el) + E(nuc-el) + E(el-el) + E(nuc-nuc)
    E(ZPE)  - the the zero temperature vibrational energy from the frequency calculation
    E(vib)  - the the finite temperature correction to E(ZPE) due to population
              of excited vibrational states
    E(rot)  - is the rotational thermal energy
    E(trans)- is the translational thermal energy

Summary of contributions to the inner energy U:
Electronic energy                ...    -51.49284199 Eh
Zero point energy                ...      0.17681246 Eh     110.95 kcal/mol
Thermal vibrational correction   ...      0.01400615 Eh       8.79 kcal/mol
Thermal rotational correction    ...      0.00141627 Eh       0.89 kcal/mol
Thermal translational correction ...      0.00141627 Eh       0.89 kcal/mol
-----------------------------------------------------------------------
Total thermal energy                    -51.29919083 Eh

Summary of corrections to the electronic energy:
(perhaps to be used in another calculation)
Total thermal correction                  0.01683869 Eh      10.57 kcal/mol
Non-thermal (ZPE) correction              0.17681246 Eh     110.95 kcal/mol
-----------------------------------------------------------------------
Total correction                          0.19365116 Eh     121.52 kcal/mol

--------
ENTHALPY
--------

The enthalpy is H = U + kB*T
                kB is Boltzmann's constant
Total free energy                 ...    -51.29919083 Eh
Thermal Enthalpy correction       ...      0.00094421 Eh       0.59 kcal/mol
-----------------------------------------------------------------------
Total Enthalpy                    ...    -51.29824662 Eh

Note: Only C1 symmetry has been detected, increase convergence thresholds
      if your molecule has a higher symmetry. Symmetry factor of 1.0 is
      used for the rotational entropy correction.

Note: Rotational entropy computed according to Herzberg
Infrared and Raman Spectra, Chapter V,1, Van Nostrand Reinhold, 1945
Point Group:  C1, Symmetry Number:   1
Rotational constants in cm-1:     0.030335     0.013301     0.011327

Vibrational entropy computed according to the QRRHO of S. Grimme
Chem.Eur.J. 2012 18 9955

-------
ENTROPY
-------

The entropy contributions are T*S = T*(S(el)+S(vib)+S(rot)+S(trans))
     S(el)   - electronic entropy
     S(vib)  - vibrational entropy
     S(rot)  - rotational entropy
     S(trans)- translational entropy
The entropies will be listed as multiplied by the temperature to get
units of energy

Electronic entropy                ...      0.00000000 Eh      0.00 kcal/mol
Vibrational entropy               ...      0.02509026 Eh     15.74 kcal/mol
Rotational entropy                ...      0.01531560 Eh      9.61 kcal/mol
Translational entropy             ...      0.02005154 Eh     12.58 kcal/mol
-----------------------------------------------------------------------

                             ****ORCA TERMINATED NORMALLY****
TOTAL RUN TIME: 0 days 0 hours 6 minutes 9 seconds 113 msec
