                         Program Version 5.0.3 -  RELEASE  -
|  1> ! XTB2 opt numfreq
|  2> * xyz 0 1
|  3> O 2.357836 -.288836 2.079174
|  4> P 3.072089 .092419 .859131
|  5> O 3.628072 1.618092 .760961
|  6> O 4.414938 -.752217 .574109
|  7> O 2.192152 -.012940 -.503492
|  8> C 1.044723 -.841127 -.498183
|  9> C -.141880 -.145797 .164583
| 10> O -.530572 1.027388 -.554962
| 11> C -1.912257 1.019598 -.808845
| 12> O -2.198162 .622770 -2.117384
| 13> C -2.534608 -.009566 .150319
| 14> O -2.740823 .497547 1.443097
| 15> C -1.396178 -1.052529 .231361
| 16> O -1.449719 -1.885419 1.337626
| 17> H 2.970356 2.245537 1.106305
| 18> H 4.893554 -.403845 -.187994
| 19> H 1.234198 -1.771000 .043873
| 20> H .826287 -1.050275 -1.549684
| 21> H .163544 .155423 1.176529
| 22> H -2.285645 2.045285 -.631108
| 23> H -1.576642 1.066094 -2.710867
| 24> H -3.455889 -.426278 -.277172
| 25> H -3.432690 1.168167 1.419726
| 26> H -1.436599 -1.694747 -.654326
| 27> H -1.581055 -1.332315 2.120636
| 28> *
| 29>
| 30>                          ****END OF INPUT****
FINAL SINGLE POINT ENERGY       -51.519856496540
FINAL SINGLE POINT ENERGY       -51.521161761830
FINAL SINGLE POINT ENERGY       -51.521704151080
FINAL SINGLE POINT ENERGY       -51.521859338330
FINAL SINGLE POINT ENERGY       -51.522209170690
FINAL SINGLE POINT ENERGY       -51.522636913330
FINAL SINGLE POINT ENERGY       -51.522958758540
FINAL SINGLE POINT ENERGY       -51.517466052340
FINAL SINGLE POINT ENERGY       -51.523887746500
FINAL SINGLE POINT ENERGY       -51.524153257270
FINAL SINGLE POINT ENERGY       -51.526494526560
FINAL SINGLE POINT ENERGY       -51.526505869870
FINAL SINGLE POINT ENERGY       -51.526515381300
FINAL SINGLE POINT ENERGY       -51.526528008430
FINAL SINGLE POINT ENERGY       -51.526538257600
FINAL SINGLE POINT ENERGY       -51.526541508420
FINAL SINGLE POINT ENERGY       -51.526541567620
FINAL SINGLE POINT ENERGY       -51.526550228810
FINAL SINGLE POINT ENERGY       -51.526551582690
                    ***********************HURRAY********************

CARTESIAN COORDINATES (ANGSTROEM)
---------------------------------
  O     2.678678   -0.273459    1.701076
  P     2.785638    0.310156    0.373469
  O     2.438624    1.866670    0.233666
  O     4.227901    0.271634   -0.269762
  O     1.898480   -0.405546   -0.778930
  C     0.889431   -1.314970   -0.397039
  C    -0.077508   -0.705482    0.639666
  O    -0.079463    0.711186    0.529458
  C    -1.116748    1.077650   -0.333324
  O    -0.789304    0.912948   -1.677881
  C    -2.283554    0.132454    0.009827
  O    -3.028157    0.591585    1.107862
  C    -1.546819   -1.169321    0.432166
  O    -2.099603   -1.772974    1.552364
  H     1.682188    2.063880    0.787204
  H     4.266790    0.719711   -1.114324
  H     1.335136   -2.219797    0.022276
  H     0.364952   -1.556186   -1.326401
  H     0.274142   -0.934862    1.647118
  H    -1.350796    2.132609   -0.111644
  H     0.148865    1.116148   -1.792041
  H    -2.913869   -0.024507   -0.871346
  H    -3.563447    1.345181    0.841711
  H    -1.595058   -1.908220   -0.372550
  H    -2.421469   -1.075061    2.140792

FINAL SINGLE POINT ENERGY       -51.526553069040

VIBRATIONAL FREQUENCIES
-----------------------

Scaling factor for frequencies =  1.000000000 (already applied!)

   0:         0.00 cm**-1
   1:         0.00 cm**-1
   2:         0.00 cm**-1
   3:         0.00 cm**-1
   4:         0.00 cm**-1
   5:         0.00 cm**-1
   6:        21.35 cm**-1
   7:        28.73 cm**-1
   8:        47.84 cm**-1
   9:        88.15 cm**-1
  10:       104.18 cm**-1
  11:       153.72 cm**-1
  12:       191.31 cm**-1
  13:       217.20 cm**-1
  14:       230.33 cm**-1
  15:       250.56 cm**-1
  16:       266.36 cm**-1
  17:       274.22 cm**-1
  18:       293.26 cm**-1
  19:       305.44 cm**-1
  20:       317.80 cm**-1
  21:       346.90 cm**-1
  22:       372.00 cm**-1
  23:       374.41 cm**-1
  24:       404.76 cm**-1
  25:       425.76 cm**-1
  26:       438.74 cm**-1
  27:       464.64 cm**-1
  28:       542.41 cm**-1
  29:       579.65 cm**-1
  30:       630.57 cm**-1
  31:       715.92 cm**-1
  32:       726.07 cm**-1
  33:       782.81 cm**-1
  34:       803.51 cm**-1
  35:       830.70 cm**-1
  36:       848.23 cm**-1
  37:       900.43 cm**-1
  38:       907.09 cm**-1
  39:       929.88 cm**-1
  40:       966.41 cm**-1
  41:      1006.78 cm**-1
  42:      1022.69 cm**-1
  43:      1050.92 cm**-1
  44:      1068.86 cm**-1
  45:      1084.69 cm**-1
  46:      1106.40 cm**-1
  47:      1117.33 cm**-1
  48:      1141.27 cm**-1
  49:      1160.36 cm**-1
  50:      1187.89 cm**-1
  51:      1199.92 cm**-1
  52:      1225.76 cm**-1
  53:      1232.38 cm**-1
  54:      1244.66 cm**-1
  55:      1260.62 cm**-1
  56:      1285.20 cm**-1
  57:      1298.93 cm**-1
  58:      1299.60 cm**-1
  59:      1305.80 cm**-1
  60:      1325.93 cm**-1
  61:      1336.35 cm**-1
  62:      1362.02 cm**-1
  63:      1447.90 cm**-1
  64:      2851.32 cm**-1
  65:      2936.68 cm**-1
  66:      2948.22 cm**-1
  67:      2957.04 cm**-1
  68:      2959.33 cm**-1
  69:      2989.48 cm**-1
  70:      3478.31 cm**-1
  71:      3501.04 cm**-1
  72:      3568.46 cm**-1
  73:      3598.01 cm**-1
  74:      3606.73 cm**-1

IR SPECTRUM
-----------

 Mode   freq       eps      Int      T**2         TX        TY        TZ
       cm**-1   L/(mol*cm) km/mol    a.u.
----------------------------------------------------------------------------
  6:     21.35   0.001016    5.13  0.014844  (-0.049319  0.080014 -0.077523)
  7:     28.73   0.000636    3.21  0.006903  (-0.077444  0.013086 -0.027088)
  8:     47.84   0.000788    3.98  0.005142  ( 0.030543  0.027383  0.058813)
  9:     88.15   0.000765    3.86  0.002707  (-0.016744 -0.038709  0.030470)
 10:    104.18   0.003850   19.46  0.011532  ( 0.102949 -0.027396  0.013514)
 11:    153.72   0.000858    4.34  0.001742  ( 0.013440 -0.026431  0.029369)
 12:    191.31   0.001689    8.53  0.002755  ( 0.000815  0.050854 -0.012952)
 13:    217.20   0.001255    6.34  0.001803  (-0.030170 -0.029584  0.004170)
 14:    230.33   0.005783   29.22  0.007835  (-0.085883  0.004713 -0.020897)
 15:    250.56   0.032491  164.20  0.040467  ( 0.155876  0.126741  0.010323)
 16:    266.36   0.020245  102.31  0.023720  ( 0.046695 -0.143866  0.029012)
 17:    274.22   0.023478  118.65  0.026718  (-0.053547 -0.113785 -0.104420)
 18:    293.26   0.001182    5.97  0.001258  (-0.016463 -0.002301  0.031333)
 19:    305.44   0.019613   99.11  0.020038  ( 0.111044 -0.069622  0.053477)
 20:    317.80   0.011844   59.85  0.011630  ( 0.021887  0.104047  0.018041)
 21:    346.90   0.006723   33.97  0.006047  (-0.050856 -0.023298 -0.054022)
 22:    372.00   0.013273   67.08  0.011135  (-0.070205 -0.019515 -0.076323)
 23:    374.41   0.027414  138.54  0.022849  (-0.147167  0.017745 -0.029596)
 24:    404.76   0.031334  158.35  0.024158  (-0.124804  0.026215 -0.088852)
 25:    425.76   0.003227   16.31  0.002365  (-0.024718  0.035170 -0.022748)
 26:    438.74   0.020586  104.03  0.014642  ( 0.022765  0.090041  0.077566)
 27:    464.64   0.009915   50.10  0.006659  ( 0.056193  0.055647  0.020116)
 28:    542.41   0.000516    2.61  0.000297  ( 0.014887 -0.007460  0.004446)
 29:    579.65   0.002429   12.27  0.001308  ( 0.033816 -0.007965 -0.010034)
 30:    630.57   0.010958   55.38  0.005423  ( 0.070394  0.008211 -0.020003)
 31:    715.92   0.029971  151.46  0.013064  (-0.045491 -0.058568 -0.086974)
 32:    726.07   0.008804   44.49  0.003784  ( 0.039331 -0.014195 -0.045116)
 33:    782.81   0.001986   10.03  0.000792  (-0.026596 -0.008602 -0.003190)
 34:    803.51   0.043909  221.90  0.017053  ( 0.037887  0.119038  0.038046)
 35:    830.70   0.012193   61.62  0.004581  (-0.034320  0.052451  0.025525)
 36:    848.23   0.001980   10.01  0.000728  (-0.010152 -0.014832 -0.020136)
 37:    900.43   0.062467  315.68  0.021649  (-0.144291  0.003256  0.028613)
 38:    907.09   0.054837  277.12  0.018865  ( 0.125640 -0.055189  0.005828)
 39:    929.88   0.059546  300.92  0.019983  ( 0.078146  0.116375 -0.018259)
 40:    966.41   0.008116   41.02  0.002621  (-0.001255  0.030096 -0.041395)
 41:   1006.78   0.006907   34.90  0.002141  (-0.038539  0.014931  0.020800)
 42:   1022.69   0.004410   22.29  0.001346  (-0.012103 -0.034489 -0.003096)
 43:   1050.92   0.007120   35.98  0.002114  ( 0.044985  0.005947  0.007426)
 44:   1068.86   0.015234   76.99  0.004448  ( 0.017433 -0.041351  0.049335)
 45:   1084.69   0.026090  131.85  0.007506  (-0.040964  0.026081  0.071748)
 46:   1106.40   0.029744  150.32  0.008389  (-0.058594 -0.070396  0.000713)
 47:   1117.33   0.008792   44.43  0.002455  (-0.023638 -0.000308  0.043550)
 48:   1141.27   0.027722  140.10  0.007580  (-0.040791 -0.000485  0.076916)
 49:   1160.36   0.010267   51.89  0.002761  (-0.010353 -0.047494  0.019962)
 50:   1187.89   0.010864   54.90  0.002854  (-0.005964 -0.008365  0.052426)
 51:   1199.92   0.003939   19.90  0.001024  ( 0.027079 -0.001536  0.016990)
 52:   1225.76   0.002972   15.02  0.000757  (-0.000615  0.027277 -0.003497)
 53:   1232.38   0.004097   20.70  0.001037  ( 0.013190  0.017360 -0.023707)
 54:   1244.66   0.003925   19.83  0.000984  ( 0.012711 -0.025740 -0.012646)
 55:   1260.62   0.008084   40.85  0.002001  (-0.010238 -0.018502  0.039420)
 56:   1285.20   0.013732   69.40  0.003334  ( 0.022467  0.002335  0.053142)
 57:   1298.93   0.045030  227.56  0.010818  (-0.005792 -0.043300  0.094392)
 58:   1299.60   0.006796   34.34  0.001632  ( 0.013323  0.037613 -0.006291)
 59:   1305.80   0.028015  141.58  0.006695  ( 0.015291 -0.009306  0.079842)
 60:   1325.93   0.011278   56.99  0.002654  ( 0.011650  0.028140 -0.041553)
 61:   1336.35   0.001944    9.82  0.000454  (-0.005896 -0.018537 -0.008693)
 62:   1362.02   0.010657   53.86  0.002442  ( 0.022227  0.028345 -0.033827)
 63:   1447.90   0.000132    0.67  0.000028  ( 0.001826 -0.004558  0.002072)
 64:   2851.32   0.009899   50.02  0.001083  ( 0.003162 -0.032731 -0.001437)
 65:   2936.68   0.004285   21.66  0.000455  ( 0.009042 -0.000697  0.019317)
 66:   2948.22   0.000005    0.02  0.000000  ( 0.000453 -0.000227 -0.000485)
 67:   2957.04   0.002173   10.98  0.000229  ( 0.002895 -0.008383  0.012274)
 68:   2959.33   0.007036   35.56  0.000742  ( 0.002147  0.023505  0.013597)
 69:   2989.48   0.000201    1.02  0.000021  ( 0.000468  0.002408 -0.003871)
 70:   3478.31   0.012183   61.57  0.001093  (-0.018637  0.021172  0.017247)
 71:   3501.04   0.007788   39.36  0.000694  ( 0.025023 -0.001198 -0.008164)
 72:   3568.46   0.004158   21.01  0.000364  ( 0.011196 -0.011780  0.009974)
 73:   3598.01   0.019712   99.62  0.001710  ( 0.031408 -0.011569 -0.024276)
 74:   3606.73   0.007143   36.10  0.000618  ( 0.002441  0.015129 -0.019576)

--------------------------
THERMOCHEMISTRY AT 298.15K
--------------------------

Temperature         ... 298.15 K
Pressure            ... 1.00 atm
Total Mass          ... 230.11 AMU

Throughout the following assumptions are being made:
  (1) The electronic state is orbitally nondegenerate
  (2) There are no thermally accessible electronically excited states
  (3) Hindered rotations indicated by low frequency modes are not
      treated as such but are treated as vibrations and this may
      cause some error
  (4) All equations used are the standard statistical mechanics
      equations for an ideal gas
  (5) All vibrations are strictly harmonic

freq.      21.35  E(vib)   ...       0.56
freq.      28.73  E(vib)   ...       0.55
freq.      47.84  E(vib)   ...       0.53
freq.      88.15  E(vib)   ...       0.48
freq.     104.18  E(vib)   ...       0.46
freq.     153.72  E(vib)   ...       0.40
freq.     191.31  E(vib)   ...       0.36
freq.     217.20  E(vib)   ...       0.34
freq.     230.33  E(vib)   ...       0.32
freq.     250.56  E(vib)   ...       0.30
freq.     266.36  E(vib)   ...       0.29
freq.     274.22  E(vib)   ...       0.28
freq.     293.26  E(vib)   ...       0.27
freq.     305.44  E(vib)   ...       0.26
freq.     317.80  E(vib)   ...       0.25
freq.     346.90  E(vib)   ...       0.23
freq.     372.00  E(vib)   ...       0.21
freq.     374.41  E(vib)   ...       0.21
freq.     404.76  E(vib)   ...       0.19
freq.     425.76  E(vib)   ...       0.18
freq.     438.74  E(vib)   ...       0.17
freq.     464.64  E(vib)   ...       0.16
freq.     542.41  E(vib)   ...       0.12
freq.     579.65  E(vib)   ...       0.11
freq.     630.57  E(vib)   ...       0.09
freq.     715.92  E(vib)   ...       0.07
freq.     726.07  E(vib)   ...       0.06
freq.     782.81  E(vib)   ...       0.05
freq.     803.51  E(vib)   ...       0.05
freq.     830.70  E(vib)   ...       0.04
freq.     848.23  E(vib)   ...       0.04
freq.     900.43  E(vib)   ...       0.03
freq.     907.09  E(vib)   ...       0.03
freq.     929.88  E(vib)   ...       0.03
freq.     966.41  E(vib)   ...       0.03
freq.    1006.78  E(vib)   ...       0.02
freq.    1022.69  E(vib)   ...       0.02
freq.    1050.92  E(vib)   ...       0.02
freq.    1068.86  E(vib)   ...       0.02
freq.    1084.69  E(vib)   ...       0.02
freq.    1106.40  E(vib)   ...       0.02
freq.    1117.33  E(vib)   ...       0.01
freq.    1141.27  E(vib)   ...       0.01
freq.    1160.36  E(vib)   ...       0.01
freq.    1187.89  E(vib)   ...       0.01
freq.    1199.92  E(vib)   ...       0.01
freq.    1225.76  E(vib)   ...       0.01
freq.    1232.38  E(vib)   ...       0.01
freq.    1244.66  E(vib)   ...       0.01
freq.    1260.62  E(vib)   ...       0.01
freq.    1285.20  E(vib)   ...       0.01
freq.    1298.93  E(vib)   ...       0.01
freq.    1299.60  E(vib)   ...       0.01
freq.    1305.80  E(vib)   ...       0.01
freq.    1325.93  E(vib)   ...       0.01
freq.    1336.35  E(vib)   ...       0.01
freq.    1362.02  E(vib)   ...       0.01
freq.    1447.90  E(vib)   ...       0.00
freq.    2851.32  E(vib)   ...       0.00
freq.    2936.68  E(vib)   ...       0.00
freq.    2948.22  E(vib)   ...       0.00
freq.    2957.04  E(vib)   ...       0.00
freq.    2959.33  E(vib)   ...       0.00
freq.    2989.48  E(vib)   ...       0.00
freq.    3478.31  E(vib)   ...       0.00
freq.    3501.04  E(vib)   ...       0.00
freq.    3568.46  E(vib)   ...       0.00
freq.    3598.01  E(vib)   ...       0.00
freq.    3606.73  E(vib)   ...       0.00

------------
INNER ENERGY
------------

The inner energy is: U= E(el) + E(ZPE) + E(vib) + E(rot) + E(trans)
    E(el)   - is the total energy from the electronic structure calculation
              = E(kin-el) + E(nuc-el) + E(el-el) + E(nuc-nuc)
    E(ZPE)  - the the zero temperature vibrational energy from the frequency calculation
    E(vib)  - the the finite temperature correction to E(ZPE) due to population
              of excited vibrational states
    E(rot)  - is the rotational thermal energy
    E(trans)- is the translational thermal energy

Summary of contributions to the inner energy U:
Electronic energy                ...    -51.52655307 Eh
Zero point energy                ...      0.17985725 Eh     112.86 kcal/mol
Thermal vibrational correction   ...      0.01278326 Eh       8.02 kcal/mol
Thermal rotational correction    ...      0.00141627 Eh       0.89 kcal/mol
Thermal translational correction ...      0.00141627 Eh       0.89 kcal/mol
-----------------------------------------------------------------------
Total thermal energy                    -51.33108002 Eh

Summary of corrections to the electronic energy:
(perhaps to be used in another calculation)
Total thermal correction                  0.01561580 Eh       9.80 kcal/mol
Non-thermal (ZPE) correction              0.17985725 Eh     112.86 kcal/mol
-----------------------------------------------------------------------
Total correction                          0.19547305 Eh     122.66 kcal/mol

--------
ENTHALPY
--------

The enthalpy is H = U + kB*T
                kB is Boltzmann's constant
Total free energy                 ...    -51.33108002 Eh
Thermal Enthalpy correction       ...      0.00094421 Eh       0.59 kcal/mol
-----------------------------------------------------------------------
Total Enthalpy                    ...    -51.33013581 Eh

Note: Only C1 symmetry has been detected, increase convergence thresholds
      if your molecule has a higher symmetry. Symmetry factor of 1.0 is
      used for the rotational entropy correction.

Note: Rotational entropy computed according to Herzberg
Infrared and Raman Spectra, Chapter V,1, Van Nostrand Reinhold, 1945
Point Group:  C1, Symmetry Number:   1
Rotational constants in cm-1:     0.042958     0.013095     0.012050

Vibrational entropy computed according to the QRRHO of S. Grimme
Chem.Eur.J. 2012 18 9955

-------
ENTROPY
-------

The entropy contributions are T*S = T*(S(el)+S(vib)+S(rot)+S(trans))
     S(el)   - electronic entropy
     S(vib)  - vibrational entropy
     S(rot)  - rotational entropy
     S(trans)- translational entropy
The entropies will be listed as multiplied by the temperature to get
units of energy

Electronic entropy                ...      0.00000000 Eh      0.00 kcal/mol
Vibrational entropy               ...      0.02250621 Eh     14.12 kcal/mol
Rotational entropy                ...      0.01512953 Eh      9.49 kcal/mol
Translational entropy             ...      0.02005154 Eh     12.58 kcal/mol
-----------------------------------------------------------------------

                             ****ORCA TERMINATED NORMALLY****
TOTAL RUN TIME: 0 days 0 hours 6 minutes 9 seconds 60 msec
