                         Program Version 5.0.3 -  RELEASE  -
|  1> ! XTB2 opt numfreq
|  2> * XYZ 0 1
|  3> O -4.1997 1.3581 0.0482
|  4> C -3.0088 1.6683 0.0626
|  5> C -1.9443 0.8341 -0.6324
|  6> O -2.4976 -0.4060 -1.0646
|  7> C -0.7770 0.6033 0.3294
|  8> O -0.1226 1.8552 0.5937
|  9> C 0.2499 -0.3811 -0.2375
| 10> O 1.3390 -0.4622 0.6821
| 11> P 2.4370 -1.5865 0.3813
| 12> O 1.9481 -2.9754 0.1733
| 13> O 3.5178 -1.3966 1.5358
| 14> O 3.2493 -1.0354 -0.8771
| 15> H -2.6663 2.6054 0.5336
| 16> H -1.6197 1.3996 -1.5128
| 17> H -3.4633 -0.2604 -1.1516
| 18> H -1.1376 0.2256 1.2942
| 19> H 0.7047 1.6213 1.0599
| 20> H 0.6431 -0.0197 -1.1936
| 21> H -0.1892 -1.3741 -0.3748
| 22> H 3.8726 -0.4909 1.5468
| 23> H 3.6644 -1.7827 -1.3499
| 24> *
| 25>
| 26>                          ****END OF INPUT****
FINAL SINGLE POINT ENERGY       -44.244154679020
FINAL SINGLE POINT ENERGY       -44.250701564980
FINAL SINGLE POINT ENERGY       -44.252544137180
FINAL SINGLE POINT ENERGY       -44.253051190380
FINAL SINGLE POINT ENERGY       -44.253648251650
FINAL SINGLE POINT ENERGY       -44.253976734210
FINAL SINGLE POINT ENERGY       -44.254277695730
FINAL SINGLE POINT ENERGY       -44.254518448990
FINAL SINGLE POINT ENERGY       -44.254729566570
FINAL SINGLE POINT ENERGY       -44.254907066960
FINAL SINGLE POINT ENERGY       -44.261203397940
FINAL SINGLE POINT ENERGY       -44.261411601250
FINAL SINGLE POINT ENERGY       -44.261720774360
FINAL SINGLE POINT ENERGY       -44.261987497400
FINAL SINGLE POINT ENERGY       -44.262085443920
FINAL SINGLE POINT ENERGY       -44.262118680090
FINAL SINGLE POINT ENERGY       -44.262142513120
FINAL SINGLE POINT ENERGY       -44.262163181470
FINAL SINGLE POINT ENERGY       -44.262165401770
                    ***********************HURRAY********************

CARTESIAN COORDINATES (ANGSTROEM)
---------------------------------
  O    -3.817576   -0.060129   -0.051516
  C    -2.905013    0.668442    0.231064
  C    -1.735617    0.868247   -0.702770
  O    -1.914336    0.135845   -1.877375
  C    -0.439478    0.447763    0.038280
  O    -0.297155    1.270419    1.154236
  C     0.737974    0.565164   -0.935442
  O     1.975750    0.131961   -0.393359
  P     2.127673   -0.897608    0.807489
  O     1.476100   -0.607246    2.084736
  O     3.699908   -0.966520    0.904505
  O     1.669699   -2.299422    0.168410
  H    -2.837003    1.217293    1.179152
  H    -1.648906    1.940663   -0.931705
  H    -2.746266   -0.360580   -1.768808
  H    -0.531485   -0.611539    0.327049
  H     0.339710    0.845226    1.757140
  H     0.881059    1.615074   -1.205990
  H     0.513855   -0.020489   -1.831385
  H     4.125405   -1.001955    0.047755
  H     1.325502   -2.880712    0.845135

FINAL SINGLE POINT ENERGY       -44.262165692690

VIBRATIONAL FREQUENCIES
-----------------------

Scaling factor for frequencies =  1.000000000 (already applied!)

   0:         0.00 cm**-1
   1:         0.00 cm**-1
   2:         0.00 cm**-1
   3:         0.00 cm**-1
   4:         0.00 cm**-1
   5:         0.00 cm**-1
   6:        33.12 cm**-1
   7:        54.26 cm**-1
   8:        61.47 cm**-1
   9:        95.13 cm**-1
  10:       116.64 cm**-1
  11:       141.87 cm**-1
  12:       197.90 cm**-1
  13:       210.32 cm**-1
  14:       242.60 cm**-1
  15:       263.81 cm**-1
  16:       293.06 cm**-1
  17:       310.25 cm**-1
  18:       328.98 cm**-1
  19:       375.24 cm**-1
  20:       377.26 cm**-1
  21:       408.67 cm**-1
  22:       420.03 cm**-1
  23:       424.11 cm**-1
  24:       438.05 cm**-1
  25:       475.32 cm**-1
  26:       581.11 cm**-1
  27:       593.00 cm**-1
  28:       729.60 cm**-1
  29:       748.02 cm**-1
  30:       806.69 cm**-1
  31:       844.03 cm**-1
  32:       853.53 cm**-1
  33:       886.75 cm**-1
  34:       914.35 cm**-1
  35:       916.33 cm**-1
  36:       948.38 cm**-1
  37:      1028.74 cm**-1
  38:      1044.62 cm**-1
  39:      1105.30 cm**-1
  40:      1129.36 cm**-1
  41:      1142.06 cm**-1
  42:      1163.95 cm**-1
  43:      1205.58 cm**-1
  44:      1211.65 cm**-1
  45:      1257.50 cm**-1
  46:      1277.41 cm**-1
  47:      1283.62 cm**-1
  48:      1305.08 cm**-1
  49:      1325.70 cm**-1
  50:      1333.35 cm**-1
  51:      1340.07 cm**-1
  52:      1446.55 cm**-1
  53:      1768.65 cm**-1
  54:      2855.00 cm**-1
  55:      2877.77 cm**-1
  56:      2885.23 cm**-1
  57:      2953.43 cm**-1
  58:      2961.81 cm**-1
  59:      3331.98 cm**-1
  60:      3337.68 cm**-1
  61:      3600.29 cm**-1
  62:      3625.32 cm**-1

IR SPECTRUM
-----------

 Mode   freq       eps      Int      T**2         TX        TY        TZ
       cm**-1   L/(mol*cm) km/mol    a.u.
----------------------------------------------------------------------------
  6:     33.12   0.000567    2.87  0.005343  (-0.059903 -0.027525  0.031581)
  7:     54.26   0.000124    0.63  0.000715  (-0.003632  0.021338 -0.015687)
  8:     61.47   0.000757    3.82  0.003842  (-0.015935  0.017796 -0.057196)
  9:     95.13   0.000434    2.19  0.001424  (-0.014204 -0.016717 -0.030699)
 10:    116.64   0.000665    3.36  0.001779  ( 0.015181 -0.025406 -0.030056)
 11:    141.87   0.003519   17.78  0.007740  ( 0.072634 -0.033516  0.036623)
 12:    197.90   0.001039    5.25  0.001639  (-0.038523 -0.010534 -0.006629)
 13:    210.32   0.003604   18.21  0.005347  (-0.025326  0.066451 -0.017033)
 14:    242.60   0.021303  107.66  0.027403  ( 0.157958  0.012129  0.048010)
 15:    263.81   0.000901    4.55  0.001066  (-0.026513 -0.011332  0.015319)
 16:    293.06   0.017443   88.15  0.018574  (-0.006498  0.130030  0.040304)
 17:    310.25   0.003564   18.01  0.003584  ( 0.014135 -0.036308  0.045456)
 18:    328.98   0.002398   12.12  0.002275  (-0.047040 -0.007385  0.002764)
 19:    375.24   0.022482  113.61  0.018697  ( 0.075116 -0.086734  0.074375)
 20:    377.26   0.003897   19.69  0.003223  ( 0.046069  0.015275 -0.029453)
 21:    408.67   0.008500   42.96  0.006491  ( 0.025292 -0.076492 -0.000228)
 22:    420.03   0.008407   42.48  0.006246  (-0.039980  0.036810 -0.057381)
 23:    424.11   0.008082   40.84  0.005947  (-0.003426  0.076365 -0.010183)
 24:    438.05   0.026701  134.94  0.019022  (-0.065528  0.121161 -0.006900)
 25:    475.32   0.008080   40.83  0.005304  (-0.059426  0.023753 -0.034768)
 26:    581.11   0.012230   61.81  0.006568  ( 0.078548 -0.013051 -0.015089)
 27:    593.00   0.023162  117.05  0.012189  ( 0.074018  0.052143 -0.063177)
 28:    729.60   0.008470   42.80  0.003623  ( 0.024226  0.038042 -0.039857)
 29:    748.02   0.005406   27.32  0.002255  ( 0.047246 -0.000638 -0.004781)
 30:    806.69   0.065174  329.36  0.025212  ( 0.005893  0.157878 -0.015876)
 31:    844.03   0.009502   48.02  0.003513  ( 0.045188  0.032307 -0.020672)
 32:    853.53   0.007882   39.83  0.002882  ( 0.022671  0.045191  0.018046)
 33:    886.75   0.034946  176.60  0.012298  ( 0.094048 -0.048246 -0.033545)
 34:    914.35   0.047784  241.48  0.016308  (-0.120193 -0.002871 -0.043054)
 35:    916.33   0.071579  361.73  0.024377  (-0.110634 -0.019431 -0.108440)
 36:    948.38   0.009143   46.20  0.003008  (-0.009358 -0.003929  0.053901)
 37:   1028.74   0.006335   32.01  0.001922  (-0.014762 -0.040771 -0.006443)
 38:   1044.62   0.005800   29.31  0.001733  (-0.031999  0.023236 -0.012993)
 39:   1105.30   0.021669  109.51  0.006118  (-0.045383  0.062368 -0.012984)
 40:   1129.36   0.027549  139.22  0.007612  ( 0.037542  0.027839  0.073675)
 41:   1142.06   0.012307   62.19  0.003363  ( 0.053723 -0.011632  0.018473)
 42:   1163.95   0.005945   30.04  0.001594  (-0.029607  0.010175  0.024773)
 43:   1205.58   0.001023    5.17  0.000265  ( 0.012440  0.010444 -0.000991)
 44:   1211.65   0.003473   17.55  0.000895  (-0.022670  0.004589  0.018963)
 45:   1257.50   0.097805  494.27  0.024271  (-0.049017  0.062305  0.134115)
 46:   1277.41   0.017857   90.24  0.004362  ( 0.002932 -0.051444 -0.041319)
 47:   1283.62   0.008017   40.51  0.001949  ( 0.021487  0.009419 -0.037397)
 48:   1305.08   0.016715   84.47  0.003997  ( 0.009654 -0.007304 -0.062050)
 49:   1325.70   0.002212   11.18  0.000521  (-0.017944 -0.005864 -0.012816)
 50:   1333.35   0.003301   16.68  0.000773  ( 0.002908  0.027641  0.000143)
 51:   1340.07   0.010286   51.98  0.002395  ( 0.026212 -0.036179  0.019985)
 52:   1446.55   0.002015   10.18  0.000435  ( 0.008290  0.003073 -0.018880)
 53:   1768.65   0.060166  304.05  0.010616  ( 0.092318  0.045653  0.002994)
 54:   2855.00   0.008168   41.28  0.000893  (-0.000380 -0.029646  0.003716)
 55:   2877.77   0.004780   24.16  0.000518  (-0.004565  0.020686 -0.008344)
 56:   2885.23   0.011716   59.21  0.001267  ( 0.006560  0.025433  0.024026)
 57:   2953.43   0.005557   28.08  0.000587  (-0.012049 -0.003288 -0.020764)
 58:   2961.81   0.004897   24.75  0.000516  ( 0.000413 -0.018264  0.013500)
 59:   3331.98   0.067952  343.40  0.006364  ( 0.069114 -0.035548  0.017994)
 60:   3337.68   0.016980   85.81  0.001588  ( 0.027150  0.016125 -0.024300)
 61:   3600.29   0.016011   80.91  0.001388  (-0.016918 -0.000206  0.033190)
 62:   3625.32   0.012483   63.08  0.001075  ( 0.011384  0.027422 -0.013891)

--------------------------
THERMOCHEMISTRY AT 298.15K
--------------------------

Temperature         ... 298.15 K
Pressure            ... 1.00 atm
Total Mass          ... 200.08 AMU

Throughout the following assumptions are being made:
  (1) The electronic state is orbitally nondegenerate
  (2) There are no thermally accessible electronically excited states
  (3) Hindered rotations indicated by low frequency modes are not
      treated as such but are treated as vibrations and this may
      cause some error
  (4) All equations used are the standard statistical mechanics
      equations for an ideal gas
  (5) All vibrations are strictly harmonic

freq.      33.12  E(vib)   ...       0.55
freq.      54.26  E(vib)   ...       0.52
freq.      61.47  E(vib)   ...       0.51
freq.      95.13  E(vib)   ...       0.47
freq.     116.64  E(vib)   ...       0.44
freq.     141.87  E(vib)   ...       0.41
freq.     197.90  E(vib)   ...       0.35
freq.     210.32  E(vib)   ...       0.34
freq.     242.60  E(vib)   ...       0.31
freq.     263.81  E(vib)   ...       0.29
freq.     293.06  E(vib)   ...       0.27
freq.     310.25  E(vib)   ...       0.26
freq.     328.98  E(vib)   ...       0.24
freq.     375.24  E(vib)   ...       0.21
freq.     377.26  E(vib)   ...       0.21
freq.     408.67  E(vib)   ...       0.19
freq.     420.03  E(vib)   ...       0.18
freq.     424.11  E(vib)   ...       0.18
freq.     438.05  E(vib)   ...       0.17
freq.     475.32  E(vib)   ...       0.15
freq.     581.11  E(vib)   ...       0.11
freq.     593.00  E(vib)   ...       0.10
freq.     729.60  E(vib)   ...       0.06
freq.     748.02  E(vib)   ...       0.06
freq.     806.69  E(vib)   ...       0.05
freq.     844.03  E(vib)   ...       0.04
freq.     853.53  E(vib)   ...       0.04
freq.     886.75  E(vib)   ...       0.04
freq.     914.35  E(vib)   ...       0.03
freq.     916.33  E(vib)   ...       0.03
freq.     948.38  E(vib)   ...       0.03
freq.    1028.74  E(vib)   ...       0.02
freq.    1044.62  E(vib)   ...       0.02
freq.    1105.30  E(vib)   ...       0.02
freq.    1129.36  E(vib)   ...       0.01
freq.    1142.06  E(vib)   ...       0.01
freq.    1163.95  E(vib)   ...       0.01
freq.    1205.58  E(vib)   ...       0.01
freq.    1211.65  E(vib)   ...       0.01
freq.    1257.50  E(vib)   ...       0.01
freq.    1277.41  E(vib)   ...       0.01
freq.    1283.62  E(vib)   ...       0.01
freq.    1305.08  E(vib)   ...       0.01
freq.    1325.70  E(vib)   ...       0.01
freq.    1333.35  E(vib)   ...       0.01
freq.    1340.07  E(vib)   ...       0.01
freq.    1446.55  E(vib)   ...       0.00
freq.    1768.65  E(vib)   ...       0.00
freq.    2855.00  E(vib)   ...       0.00
freq.    2877.77  E(vib)   ...       0.00
freq.    2885.23  E(vib)   ...       0.00
freq.    2953.43  E(vib)   ...       0.00
freq.    2961.81  E(vib)   ...       0.00
freq.    3331.98  E(vib)   ...       0.00
freq.    3337.68  E(vib)   ...       0.00
freq.    3600.29  E(vib)   ...       0.00
freq.    3625.32  E(vib)   ...       0.00

------------
INNER ENERGY
------------

The inner energy is: U= E(el) + E(ZPE) + E(vib) + E(rot) + E(trans)
    E(el)   - is the total energy from the electronic structure calculation
              = E(kin-el) + E(nuc-el) + E(el-el) + E(nuc-nuc)
    E(ZPE)  - the the zero temperature vibrational energy from the frequency calculation
    E(vib)  - the the finite temperature correction to E(ZPE) due to population
              of excited vibrational states
    E(rot)  - is the rotational thermal energy
    E(trans)- is the translational thermal energy

Summary of contributions to the inner energy U:
Electronic energy                ...    -44.26216569 Eh
Zero point energy                ...      0.14554671 Eh      91.33 kcal/mol
Thermal vibrational correction   ...      0.01117996 Eh       7.02 kcal/mol
Thermal rotational correction    ...      0.00141627 Eh       0.89 kcal/mol
Thermal translational correction ...      0.00141627 Eh       0.89 kcal/mol
-----------------------------------------------------------------------
Total thermal energy                    -44.10260648 Eh

Summary of corrections to the electronic energy:
(perhaps to be used in another calculation)
Total thermal correction                  0.01401250 Eh       8.79 kcal/mol
Non-thermal (ZPE) correction              0.14554671 Eh      91.33 kcal/mol
-----------------------------------------------------------------------
Total correction                          0.15955921 Eh     100.12 kcal/mol

--------
ENTHALPY
--------

The enthalpy is H = U + kB*T
                kB is Boltzmann's constant
Total free energy                 ...    -44.10260648 Eh
Thermal Enthalpy correction       ...      0.00094421 Eh       0.59 kcal/mol
-----------------------------------------------------------------------
Total Enthalpy                    ...    -44.10166227 Eh

Note: Only C1 symmetry has been detected, increase convergence thresholds
      if your molecule has a higher symmetry. Symmetry factor of 1.0 is
      used for the rotational entropy correction.

Note: Rotational entropy computed according to Herzberg
Infrared and Raman Spectra, Chapter V,1, Van Nostrand Reinhold, 1945
Point Group:  C1, Symmetry Number:   1
Rotational constants in cm-1:     0.059050     0.014062     0.013638

Vibrational entropy computed according to the QRRHO of S. Grimme
Chem.Eur.J. 2012 18 9955

-------
ENTROPY
-------

The entropy contributions are T*S = T*(S(el)+S(vib)+S(rot)+S(trans))
     S(el)   - electronic entropy
     S(vib)  - vibrational entropy
     S(rot)  - rotational entropy
     S(trans)- translational entropy
The entropies will be listed as multiplied by the temperature to get
units of energy

Electronic entropy                ...      0.00000000 Eh      0.00 kcal/mol
Vibrational entropy               ...      0.01959116 Eh     12.29 kcal/mol
Rotational entropy                ...      0.01488722 Eh      9.34 kcal/mol
Translational entropy             ...      0.01985351 Eh     12.46 kcal/mol
-----------------------------------------------------------------------
Final entropy term                ...      0.05433190 Eh     34.09 kcal/mol

In case the symmetry of your molecule has not been determined correctly
or in case you have a reason to use a different symmetry number we print
out the resulting rotational entropy values for sn=1,12 :
 --------------------------------------------------------
|  sn= 1 | S(rot)=       0.01488722 Eh      9.34 kcal/mol|
|  sn= 2 | S(rot)=       0.01423277 Eh      8.93 kcal/mol|
|  sn= 3 | S(rot)=       0.01384993 Eh      8.69 kcal/mol|
|  sn= 4 | S(rot)=       0.01357831 Eh      8.52 kcal/mol|
|  sn= 5 | S(rot)=       0.01336762 Eh      8.39 kcal/mol|
|  sn= 6 | S(rot)=       0.01319548 Eh      8.28 kcal/mol|

                             ****ORCA TERMINATED NORMALLY****
TOTAL RUN TIME: 0 days 0 hours 5 minutes 10 seconds 514 msec
