                         Program Version 5.0.3 -  RELEASE  -
|  1> ! XTB2 opt numfreq
|  2> * XYZ 0 1
|  3> O -1.5451 -0.4581 -2.4110
|  4> C -1.5400 -0.5955 -1.1804
|  5> C -2.2848 0.3743 -0.2721
|  6> O -3.2280 1.1429 -1.0094
|  7> C -0.8436 -1.7966 -0.5368
|  8> O -0.2897 -2.6420 -1.5543
|  9> C 0.2638 -1.4231 0.4572
| 10> O -0.3022 -0.7602 1.5919
| 11> C 1.4117 -0.6148 -0.1691
| 12> O 0.9998 0.7184 -0.4350
| 13> P 1.5458 1.8939 0.5005
| 14> O 0.9759 3.2478 0.2754
| 15> O 3.1306 1.8422 0.3411
| 16> O 1.3328 1.3619 1.9952
| 17> H -2.8337 -0.1843 0.4900
| 18> H -1.5796 1.0603 0.2004
| 19> H -2.8081 1.3342 -1.8713
| 20> H -1.6256 -2.3732 -0.0294
| 21> H -0.7354 -2.3899 -2.3905
| 22> H 0.7027 -2.3590 0.8253
| 23> H 0.3988 -0.2122 2.0072
| 24> H 1.7527 -1.0649 -1.1064
| 25> H 2.2670 -0.6105 0.5159
| 26> H 3.4228 2.3985 -0.4057
| 27> H 1.4113 2.1102 2.6196
| 28> *
| 29>
| 30>                          ****END OF INPUT****
FINAL SINGLE POINT ENERGY       -51.482065333620
FINAL SINGLE POINT ENERGY       -51.488534450940
FINAL SINGLE POINT ENERGY       -51.490844749550
FINAL SINGLE POINT ENERGY       -51.491771674970
FINAL SINGLE POINT ENERGY       -51.492134019420
FINAL SINGLE POINT ENERGY       -51.492473199400
FINAL SINGLE POINT ENERGY       -51.492625270700
FINAL SINGLE POINT ENERGY       -51.492728707510
FINAL SINGLE POINT ENERGY       -51.492804508450
FINAL SINGLE POINT ENERGY       -51.492880461990
FINAL SINGLE POINT ENERGY       -51.494330031760
FINAL SINGLE POINT ENERGY       -51.494419279760
FINAL SINGLE POINT ENERGY       -51.494487157180
FINAL SINGLE POINT ENERGY       -51.494567370840
FINAL SINGLE POINT ENERGY       -51.494614890590
FINAL SINGLE POINT ENERGY       -51.494638863240
FINAL SINGLE POINT ENERGY       -51.494661639550
FINAL SINGLE POINT ENERGY       -51.494665535870
FINAL SINGLE POINT ENERGY       -51.494668480270
                    ***********************HURRAY********************

CARTESIAN COORDINATES (ANGSTROEM)
---------------------------------
  O    -1.177774   -0.259840   -2.250353
  C    -1.350457   -0.486280   -1.077008
  C    -2.130278    0.416278   -0.148244
  O    -2.352635    1.697159   -0.648431
  C    -0.848791   -1.815525   -0.502790
  O    -0.405918   -2.621796   -1.555569
  C     0.313505   -1.664969    0.528149
  O    -0.126804   -1.169387    1.760602
  C     1.452056   -0.841594   -0.077848
  O     0.947859    0.402235   -0.549384
  P     1.181241    1.797914    0.137233
  O     0.357702    2.850624   -0.441308
  O     2.756064    2.073926    0.096736
  O     0.954305    1.502684    1.695441
  H    -3.120983   -0.040911   -0.026528
  H    -1.655937    0.431630    0.844459
  H    -1.503211    2.130193   -0.828905
  H    -1.676873   -2.310405    0.024320
  H    -0.453505   -2.064742   -2.356718
  H     0.685297   -2.684362    0.701008
  H     0.156044   -0.250359    1.859619
  H     1.855643   -1.367810   -0.946343
  H     2.241409   -0.680597    0.660114
  H     2.971939    2.637953   -0.644005
  H     0.930003    2.318282    2.194050

FINAL SINGLE POINT ENERGY       -51.494669657890

VIBRATIONAL FREQUENCIES
-----------------------

Scaling factor for frequencies =  1.000000000 (already applied!)

   0:         0.00 cm**-1
   1:         0.00 cm**-1
   2:         0.00 cm**-1
   3:         0.00 cm**-1
   4:         0.00 cm**-1
   5:         0.00 cm**-1
   6:        27.14 cm**-1
   7:        43.54 cm**-1
   8:        65.07 cm**-1
   9:       111.95 cm**-1
  10:       116.43 cm**-1
  11:       123.43 cm**-1
  12:       152.46 cm**-1
  13:       160.76 cm**-1
  14:       174.91 cm**-1
  15:       204.10 cm**-1
  16:       211.38 cm**-1
  17:       246.95 cm**-1
  18:       267.12 cm**-1
  19:       325.27 cm**-1
  20:       331.18 cm**-1
  21:       354.25 cm**-1
  22:       358.92 cm**-1
  23:       377.14 cm**-1
  24:       391.20 cm**-1
  25:       393.28 cm**-1
  26:       428.02 cm**-1
  27:       453.52 cm**-1
  28:       469.56 cm**-1
  29:       486.19 cm**-1
  30:       510.99 cm**-1
  31:       542.55 cm**-1
  32:       671.13 cm**-1
  33:       708.36 cm**-1
  34:       767.76 cm**-1
  35:       814.62 cm**-1
  36:       818.45 cm**-1
  37:       843.93 cm**-1
  38:       885.50 cm**-1
  39:       910.96 cm**-1
  40:       914.65 cm**-1
  41:       921.43 cm**-1
  42:       954.72 cm**-1
  43:      1026.59 cm**-1
  44:      1049.97 cm**-1
  45:      1090.87 cm**-1
  46:      1112.69 cm**-1
  47:      1122.18 cm**-1
  48:      1137.94 cm**-1
  49:      1144.99 cm**-1
  50:      1175.55 cm**-1
  51:      1204.47 cm**-1
  52:      1212.95 cm**-1
  53:      1256.05 cm**-1
  54:      1282.05 cm**-1
  55:      1288.62 cm**-1
  56:      1298.46 cm**-1
  57:      1304.27 cm**-1
  58:      1328.61 cm**-1
  59:      1343.81 cm**-1
  60:      1344.65 cm**-1
  61:      1419.95 cm**-1
  62:      1436.96 cm**-1
  63:      1750.36 cm**-1
  64:      2863.08 cm**-1
  65:      2888.11 cm**-1
  66:      2907.01 cm**-1
  67:      2924.39 cm**-1
  68:      2960.61 cm**-1
  69:      2971.06 cm**-1
  70:      3291.88 cm**-1
  71:      3425.91 cm**-1
  72:      3481.09 cm**-1
  73:      3622.30 cm**-1
  74:      3633.65 cm**-1

IR SPECTRUM
-----------

 Mode   freq       eps      Int      T**2         TX        TY        TZ
       cm**-1   L/(mol*cm) km/mol    a.u.
----------------------------------------------------------------------------
  6:     27.14   0.000664    3.35  0.007633  (-0.084018 -0.009569  0.021964)
  7:     43.54   0.000051    0.26  0.000369  ( 0.018763  0.003693  0.001818)
  8:     65.07   0.001544    7.80  0.007403  ( 0.039198  0.076196  0.007777)
  9:    111.95   0.000199    1.00  0.000554  ( 0.013554  0.011050  0.015761)
 10:    116.43   0.000329    1.66  0.000883  ( 0.022898 -0.018749 -0.002645)
 11:    123.43   0.001246    6.29  0.003149  (-0.052532  0.011978 -0.015683)
 12:    152.46   0.000196    0.99  0.000401  ( 0.012148  0.006744  0.014415)
 13:    160.76   0.000423    2.14  0.000821  (-0.023755 -0.004838 -0.015289)
 14:    174.91   0.001326    6.70  0.002367  ( 0.010783  0.032191  0.034845)
 15:    204.10   0.012381   62.57  0.018931  (-0.124857  0.054792 -0.018418)
 16:    211.38   0.004042   20.43  0.005967  (-0.067260  0.012158  0.035992)
 17:    246.95   0.005708   28.84  0.007213  ( 0.010645 -0.082015 -0.019309)
 18:    267.12   0.014706   74.32  0.017181  ( 0.089244  0.071989  0.063514)
 19:    325.27   0.005938   30.01  0.005697  ( 0.023499  0.034688  0.062783)
 20:    331.18   0.001564    7.90  0.001474  ( 0.003533 -0.034159 -0.017162)
 21:    354.25   0.000631    3.19  0.000556  ( 0.015158 -0.012599  0.012926)
 22:    358.92   0.009376   47.38  0.008152  (-0.035421 -0.081771 -0.014511)
 23:    377.14   0.014417   72.86  0.011929  (-0.059002  0.066038 -0.063929)
 24:    391.20   0.002011   10.16  0.001604  (-0.020906 -0.028102 -0.019432)
 25:    393.28   0.008933   45.14  0.007088  ( 0.001222 -0.050028 -0.067703)
 26:    428.02   0.035583  179.82  0.025943  ( 0.149621  0.042291  0.042053)
 27:    453.52   0.015481   78.24  0.010653  (-0.093637  0.034803 -0.025953)
 28:    469.56   0.019478   98.43  0.012945  (-0.099674 -0.047258 -0.027868)
 29:    486.19   0.016012   80.92  0.010277  (-0.005616  0.036983  0.094224)
 30:    510.99   0.017554   88.71  0.010720  (-0.015257 -0.048916 -0.089970)
 31:    542.55   0.003628   18.33  0.002087  (-0.031296 -0.004570  0.032958)
 32:    671.13   0.001622    8.20  0.000754  ( 0.009526  0.005626  0.025138)
 33:    708.36   0.003793   19.17  0.001671  (-0.013410 -0.022807 -0.031164)
 34:    767.76   0.002097   10.60  0.000853  (-0.005475  0.000062 -0.028680)
 35:    814.62   0.028182  142.42  0.010796  ( 0.061811  0.047538  0.068669)
 36:    818.45   0.044235  223.55  0.016866  (-0.109367 -0.004870  0.069865)
 37:    843.93   0.006671   33.71  0.002467  ( 0.003547 -0.014337 -0.047420)
 38:    885.50   0.061423  310.41  0.021647  ( 0.124801  0.071637 -0.030649)
 39:    910.96   0.036907  186.51  0.012643  ( 0.045024 -0.037629  0.095917)
 40:    914.65   0.023232  117.41  0.007927  ( 0.008080  0.073752  0.049213)
 41:    921.43   0.004746   23.98  0.001607  ( 0.018263  0.035192 -0.005926)
 42:    954.72   0.008459   42.75  0.002765  ( 0.030681  0.008520  0.041847)
 43:   1026.59   0.031738  160.39  0.009648  ( 0.034222 -0.091749 -0.007665)
 44:   1049.97   0.003102   15.68  0.000922  (-0.016166 -0.025623  0.002040)
 45:   1090.87   0.040949  206.94  0.011714  (-0.009340  0.096971 -0.047154)
 46:   1112.69   0.026726  135.06  0.007496  (-0.034937  0.074821  0.026016)
 47:   1122.18   0.015222   76.92  0.004233  ( 0.003502  0.005170  0.064761)
 48:   1137.94   0.010890   55.03  0.002986  ( 0.031726 -0.027623 -0.034882)
 49:   1144.99   0.001674    8.46  0.000456  ( 0.017848 -0.010530  0.005185)
 50:   1175.55   0.000165    0.83  0.000044  ( 0.001776  0.005551 -0.003139)
 51:   1204.47   0.015202   76.83  0.003939  (-0.007225 -0.012354 -0.061106)
 52:   1212.95   0.003970   20.06  0.001021  (-0.028080  0.015203  0.001273)
 53:   1256.05   0.003853   19.47  0.000957  ( 0.006019  0.028513  0.010391)
 54:   1282.05   0.008001   40.43  0.001948  (-0.008274 -0.038560 -0.019806)
 55:   1288.62   0.070101  354.26  0.016976  ( 0.077852 -0.085758  0.059673)
 56:   1298.46   0.009885   49.95  0.002376  ( 0.036765 -0.030756 -0.008836)
 57:   1304.27   0.000139    0.70  0.000033  ( 0.000154 -0.004884 -0.003053)
 58:   1328.61   0.030790  155.60  0.007232  (-0.024950  0.029781  0.075648)
 59:   1343.81   0.018945   95.74  0.004400  ( 0.024406 -0.060246  0.013201)
 60:   1344.65   0.006535   33.02  0.001517  ( 0.005577 -0.020809  0.032441)
 61:   1419.95   0.002206   11.15  0.000485  (-0.005731  0.008144  0.019641)
 62:   1436.96   0.002059   10.41  0.000447  (-0.018520 -0.000910  0.010168)
 63:   1750.36   0.053472  270.23  0.009533  (-0.003249 -0.021184  0.095258)
 64:   2863.08   0.006059   30.62  0.000660  (-0.013108  0.001014 -0.022080)
 65:   2888.11   0.007174   36.26  0.000775  ( 0.024633 -0.001056 -0.012935)
 66:   2907.01   0.007259   36.68  0.000779  (-0.017981  0.021347 -0.000418)
 67:   2924.39   0.004671   23.60  0.000498  ( 0.021690  0.002912 -0.004412)
 68:   2960.61   0.007568   38.25  0.000798  (-0.025466  0.002121 -0.012028)
 69:   2971.06   0.001861    9.41  0.000196  (-0.013590  0.002234  0.002416)
 70:   3291.88   0.014939   75.49  0.001416  (-0.019304  0.030612 -0.010316)
 71:   3425.91   0.048426  244.73  0.004411  ( 0.060580  0.024614 -0.011631)
 72:   3481.09   0.043237  218.50  0.003876  (-0.027449 -0.055271 -0.008229)
 73:   3622.30   0.022150  111.93  0.001908  (-0.013199  0.015362  0.038704)
 74:   3633.65   0.022945  115.95  0.001971  ( 0.003339 -0.038968  0.020997)

--------------------------
THERMOCHEMISTRY AT 298.15K
--------------------------

Temperature         ... 298.15 K
Pressure            ... 1.00 atm
Total Mass          ... 230.11 AMU

Throughout the following assumptions are being made:
  (1) The electronic state is orbitally nondegenerate
  (2) There are no thermally accessible electronically excited states
  (3) Hindered rotations indicated by low frequency modes are not
      treated as such but are treated as vibrations and this may
      cause some error
  (4) All equations used are the standard statistical mechanics
      equations for an ideal gas
  (5) All vibrations are strictly harmonic

freq.      27.14  E(vib)   ...       0.55
freq.      43.54  E(vib)   ...       0.53
freq.      65.07  E(vib)   ...       0.50
freq.     111.95  E(vib)   ...       0.45
freq.     116.43  E(vib)   ...       0.44
freq.     123.43  E(vib)   ...       0.43
freq.     152.46  E(vib)   ...       0.40
freq.     160.76  E(vib)   ...       0.39
freq.     174.91  E(vib)   ...       0.38
freq.     204.10  E(vib)   ...       0.35
freq.     211.38  E(vib)   ...       0.34
freq.     246.95  E(vib)   ...       0.31
freq.     267.12  E(vib)   ...       0.29
freq.     325.27  E(vib)   ...       0.24
freq.     331.18  E(vib)   ...       0.24
freq.     354.25  E(vib)   ...       0.22
freq.     358.92  E(vib)   ...       0.22
freq.     377.14  E(vib)   ...       0.21
freq.     391.20  E(vib)   ...       0.20
freq.     393.28  E(vib)   ...       0.20
freq.     428.02  E(vib)   ...       0.18
freq.     453.52  E(vib)   ...       0.16
freq.     469.56  E(vib)   ...       0.16
freq.     486.19  E(vib)   ...       0.15
freq.     510.99  E(vib)   ...       0.14
freq.     542.55  E(vib)   ...       0.12
freq.     671.13  E(vib)   ...       0.08
freq.     708.36  E(vib)   ...       0.07
freq.     767.76  E(vib)   ...       0.06
freq.     814.62  E(vib)   ...       0.05
freq.     818.45  E(vib)   ...       0.05
freq.     843.93  E(vib)   ...       0.04
freq.     885.50  E(vib)   ...       0.04
freq.     910.96  E(vib)   ...       0.03
freq.     914.65  E(vib)   ...       0.03
freq.     921.43  E(vib)   ...       0.03
freq.     954.72  E(vib)   ...       0.03
freq.    1026.59  E(vib)   ...       0.02
freq.    1049.97  E(vib)   ...       0.02
freq.    1090.87  E(vib)   ...       0.02
freq.    1112.69  E(vib)   ...       0.01
freq.    1122.18  E(vib)   ...       0.01
freq.    1137.94  E(vib)   ...       0.01
freq.    1144.99  E(vib)   ...       0.01
freq.    1175.55  E(vib)   ...       0.01
freq.    1204.47  E(vib)   ...       0.01
freq.    1212.95  E(vib)   ...       0.01
freq.    1256.05  E(vib)   ...       0.01
freq.    1282.05  E(vib)   ...       0.01
freq.    1288.62  E(vib)   ...       0.01
freq.    1298.46  E(vib)   ...       0.01
freq.    1304.27  E(vib)   ...       0.01
freq.    1328.61  E(vib)   ...       0.01
freq.    1343.81  E(vib)   ...       0.01
freq.    1344.65  E(vib)   ...       0.01
freq.    1419.95  E(vib)   ...       0.00
freq.    1436.96  E(vib)   ...       0.00
freq.    1750.36  E(vib)   ...       0.00
freq.    2863.08  E(vib)   ...       0.00
freq.    2888.11  E(vib)   ...       0.00
freq.    2907.01  E(vib)   ...       0.00
freq.    2924.39  E(vib)   ...       0.00
freq.    2960.61  E(vib)   ...       0.00
freq.    2971.06  E(vib)   ...       0.00
freq.    3291.88  E(vib)   ...       0.00
freq.    3425.91  E(vib)   ...       0.00
freq.    3481.09  E(vib)   ...       0.00
freq.    3622.30  E(vib)   ...       0.00
freq.    3633.65  E(vib)   ...       0.00

------------
INNER ENERGY
------------

The inner energy is: U= E(el) + E(ZPE) + E(vib) + E(rot) + E(trans)
    E(el)   - is the total energy from the electronic structure calculation
              = E(kin-el) + E(nuc-el) + E(el-el) + E(nuc-nuc)
    E(ZPE)  - the the zero temperature vibrational energy from the frequency calculation
    E(vib)  - the the finite temperature correction to E(ZPE) due to population
              of excited vibrational states
    E(rot)  - is the rotational thermal energy
    E(trans)- is the translational thermal energy

Summary of contributions to the inner energy U:
Electronic energy                ...    -51.49466966 Eh
Zero point energy                ...      0.17733236 Eh     111.28 kcal/mol
Thermal vibrational correction   ...      0.01356447 Eh       8.51 kcal/mol
Thermal rotational correction    ...      0.00141627 Eh       0.89 kcal/mol
Thermal translational correction ...      0.00141627 Eh       0.89 kcal/mol
-----------------------------------------------------------------------
Total thermal energy                    -51.30094029 Eh

Summary of corrections to the electronic energy:
(perhaps to be used in another calculation)
Total thermal correction                  0.01639701 Eh      10.29 kcal/mol
Non-thermal (ZPE) correction              0.17733236 Eh     111.28 kcal/mol
-----------------------------------------------------------------------
Total correction                          0.19372937 Eh     121.57 kcal/mol

--------
ENTHALPY
--------

The enthalpy is H = U + kB*T
                kB is Boltzmann's constant
Total free energy                 ...    -51.30094029 Eh
Thermal Enthalpy correction       ...      0.00094421 Eh       0.59 kcal/mol
-----------------------------------------------------------------------
Total Enthalpy                    ...    -51.29999608 Eh

Note: Only C1 symmetry has been detected, increase convergence thresholds
      if your molecule has a higher symmetry. Symmetry factor of 1.0 is
      used for the rotational entropy correction.

Note: Rotational entropy computed according to Herzberg
Infrared and Raman Spectra, Chapter V,1, Van Nostrand Reinhold, 1945
Point Group:  C1, Symmetry Number:   1
Rotational constants in cm-1:     0.028808     0.017821     0.014819

Vibrational entropy computed according to the QRRHO of S. Grimme
Chem.Eur.J. 2012 18 9955

-------
ENTROPY
-------

The entropy contributions are T*S = T*(S(el)+S(vib)+S(rot)+S(trans))
     S(el)   - electronic entropy
     S(vib)  - vibrational entropy
     S(rot)  - rotational entropy
     S(trans)- translational entropy
The entropies will be listed as multiplied by the temperature to get
units of energy

Electronic entropy                ...      0.00000000 Eh      0.00 kcal/mol
Vibrational entropy               ...      0.02393345 Eh     15.02 kcal/mol
Rotational entropy                ...      0.01507501 Eh      9.46 kcal/mol
Translational entropy             ...      0.02005154 Eh     12.58 kcal/mol
-----------------------------------------------------------------------

                             ****ORCA TERMINATED NORMALLY****
TOTAL RUN TIME: 0 days 0 hours 6 minutes 6 seconds 744 msec
