                         Program Version 5.0.3 -  RELEASE  -
|  1> ! XTB2 opt numfreq
|  2> * xyz 0 1
|  3> O 3.576215 -.849640 .028049
|  4> C 3.340833 .103695 .714688
|  5> O 4.269142 .699046 1.474806
|  6> C 2.001984 .813679 .814179
|  7> O 1.839590 1.498999 2.033881
|  8> C .812620 -.167791 .665570
|  9> O -.346800 .468977 1.153037
| 10> C .613739 -.550117 -.813389
| 11> O .404143 .573347 -1.625812
| 12> C -.472067 -1.632539 -1.028090
| 13> O -.507560 -1.957832 -2.392289
| 14> C -1.881586 -1.263497 -.525321
| 15> O -2.299545 -.020831 -1.051262
| 16> P -2.843943 1.149170 -.065237
| 17> O -3.191316 .684820 1.279332
| 18> O -4.000164 1.778059 -.933407
| 19> O -1.823561 2.347608 -.220731
| 20> H 5.124744 .251489 1.378186
| 21> H 1.952313 1.521157 -.034999
| 22> H 2.697416 1.846154 2.307345
| 23> H 1.017730 -1.079281 1.243289
| 24> H -.200235 .664263 2.106661
| 25> H 1.561398 -.979337 -1.161153
| 26> H -.531189 .884356 -1.509208
| 27> H -.166742 -2.544174 -.503443
| 28> H -.563573 -1.128998 -2.888991
| 29> H -1.914577 -1.229324 .566069
| 30> H -2.571372 -2.036087 -.881049
| 31> H -4.859146 1.416099 -.624082
| 32> H -.666801 1.782087 .286516
| 33> *
| 34>
| 35>                          ****END OF INPUT****
FINAL SINGLE POINT ENERGY       -62.766504990530
FINAL SINGLE POINT ENERGY       -62.788676687280
FINAL SINGLE POINT ENERGY       -62.805868348030
FINAL SINGLE POINT ENERGY       -62.811476967110
FINAL SINGLE POINT ENERGY       -62.813866602060
FINAL SINGLE POINT ENERGY       -62.814915274880
FINAL SINGLE POINT ENERGY       -62.815485822140
FINAL SINGLE POINT ENERGY       -62.815723161360
FINAL SINGLE POINT ENERGY       -62.815942661730
FINAL SINGLE POINT ENERGY       -62.816188130730
FINAL SINGLE POINT ENERGY       -62.816505038970
FINAL SINGLE POINT ENERGY       -62.816508112750
FINAL SINGLE POINT ENERGY       -62.816511258190
FINAL SINGLE POINT ENERGY       -62.816514022420
FINAL SINGLE POINT ENERGY       -62.816516254270
FINAL SINGLE POINT ENERGY       -62.816517819980
FINAL SINGLE POINT ENERGY       -62.816519105870
FINAL SINGLE POINT ENERGY       -62.816520171510
FINAL SINGLE POINT ENERGY       -62.816521063000
                    ***********************HURRAY********************

CARTESIAN COORDINATES (ANGSTROEM)
---------------------------------
  O     3.520263   -1.048769    0.199442
  C     3.343588   -0.019978    0.788255
  O     4.296360    0.572276    1.519789
  C     2.055929    0.789009    0.796653
  O     1.894450    1.522978    1.988184
  C     0.810572   -0.111993    0.621972
  O    -0.329912    0.617976    1.004527
  C     0.666377   -0.542753   -0.850590
  O     0.453932    0.559623   -1.691544
  C    -0.413510   -1.630419   -1.060953
  O    -0.443681   -1.975140   -2.420258
  C    -1.820876   -1.245807   -0.566160
  O    -2.193763    0.038306   -1.035021
  P    -2.882880    1.079053   -0.021034
  O    -3.154600    0.575509    1.325599
  O    -4.175291    1.515766   -0.835190
  O    -2.012556    2.394766   -0.180178
  H     5.116562    0.054043    1.492521
  H     2.099439    1.472017   -0.071884
  H     2.754488    1.867052    2.256557
  H     0.921652   -1.008695    1.248123
  H    -0.196216    0.925306    1.911557
  H     1.623066   -0.975593   -1.164359
  H    -0.454304    0.869447   -1.547935
  H    -0.113574   -2.538172   -0.526681
  H    -0.477612   -1.152328   -2.928943
  H    -1.875663   -1.257354    0.524132
  H    -2.524356   -1.980762   -0.971516
  H    -4.944927    1.413173   -0.278622
  H    -1.171268    2.265019    0.266703

FINAL SINGLE POINT ENERGY       -62.816521661470

VIBRATIONAL FREQUENCIES
-----------------------

Scaling factor for frequencies =  1.000000000 (already applied!)

   0:         0.00 cm**-1
   1:         0.00 cm**-1
   2:         0.00 cm**-1
   3:         0.00 cm**-1
   4:         0.00 cm**-1
   5:         0.00 cm**-1
   6:        19.80 cm**-1
   7:        33.33 cm**-1
   8:        47.45 cm**-1
   9:        63.54 cm**-1
  10:        65.48 cm**-1
  11:        92.18 cm**-1
  12:       109.48 cm**-1
  13:       130.67 cm**-1
  14:       132.46 cm**-1
  15:       171.69 cm**-1
  16:       193.34 cm**-1
  17:       198.10 cm**-1
  18:       231.98 cm**-1
  19:       261.10 cm**-1
  20:       274.02 cm**-1
  21:       279.13 cm**-1
  22:       287.89 cm**-1
  23:       303.96 cm**-1
  24:       322.34 cm**-1
  25:       327.86 cm**-1
  26:       347.08 cm**-1
  27:       367.53 cm**-1
  28:       379.42 cm**-1
  29:       404.81 cm**-1
  30:       415.72 cm**-1
  31:       425.52 cm**-1
  32:       445.65 cm**-1
  33:       454.75 cm**-1
  34:       490.60 cm**-1
  35:       521.09 cm**-1
  36:       552.16 cm**-1
  37:       581.01 cm**-1
  38:       625.28 cm**-1
  39:       677.75 cm**-1
  40:       704.75 cm**-1
  41:       734.91 cm**-1
  42:       805.40 cm**-1
  43:       815.63 cm**-1
  44:       836.55 cm**-1
  45:       861.65 cm**-1
  46:       893.59 cm**-1
  47:       898.97 cm**-1
  48:       924.89 cm**-1
  49:       937.74 cm**-1
  50:       953.61 cm**-1
  51:      1009.93 cm**-1
  52:      1027.75 cm**-1
  53:      1076.24 cm**-1
  54:      1103.75 cm**-1
  55:      1113.07 cm**-1
  56:      1117.98 cm**-1
  57:      1128.79 cm**-1
  58:      1139.40 cm**-1
  59:      1161.15 cm**-1
  60:      1176.75 cm**-1
  61:      1191.03 cm**-1
  62:      1215.95 cm**-1
  63:      1226.21 cm**-1
  64:      1241.50 cm**-1
  65:      1260.41 cm**-1
  66:      1264.91 cm**-1
  67:      1265.18 cm**-1
  68:      1284.89 cm**-1
  69:      1293.09 cm**-1
  70:      1320.17 cm**-1
  71:      1327.97 cm**-1
  72:      1331.08 cm**-1
  73:      1345.14 cm**-1
  74:      1356.92 cm**-1
  75:      1449.41 cm**-1
  76:      1805.07 cm**-1
  77:      2820.21 cm**-1
  78:      2889.80 cm**-1
  79:      2937.56 cm**-1
  80:      2948.48 cm**-1
  81:      2959.88 cm**-1
  82:      2972.32 cm**-1
  83:      3435.65 cm**-1
  84:      3440.38 cm**-1
  85:      3476.68 cm**-1
  86:      3486.27 cm**-1
  87:      3507.39 cm**-1
  88:      3532.65 cm**-1
  89:      3634.92 cm**-1

IR SPECTRUM
-----------

 Mode   freq       eps      Int      T**2         TX        TY        TZ
       cm**-1   L/(mol*cm) km/mol    a.u.
----------------------------------------------------------------------------
  6:     19.80   0.000042    0.21  0.000658  ( 0.017897 -0.003383 -0.018067)
  7:     33.33   0.001561    7.89  0.014616  (-0.030153 -0.059952  0.100562)
  8:     47.45   0.000537    2.71  0.003529  ( 0.028939  0.039694  0.033407)
  9:     63.54   0.002434   12.30  0.011952  (-0.036279  0.099929  0.025493)
 10:     65.48   0.000411    2.08  0.001958  ( 0.007913 -0.038291  0.020725)
 11:     92.18   0.009096   45.97  0.030791  ( 0.000780 -0.163356 -0.064069)
 12:    109.48   0.002197   11.10  0.006262  (-0.015420 -0.076086 -0.015337)
 13:    130.67   0.000835    4.22  0.001994  ( 0.041682  0.015217  0.005035)
 14:    132.46   0.003449   17.43  0.008125  (-0.025407  0.086245  0.006422)
 15:    171.69   0.005765   29.13  0.010479  (-0.021414 -0.089541 -0.044749)
 16:    193.34   0.003495   17.66  0.005641  (-0.070647  0.025403 -0.002156)
 17:    198.10   0.000263    1.33  0.000415  ( 0.006285  0.012126  0.015099)
 18:    231.98   0.002310   11.67  0.003108  ( 0.052617 -0.017726  0.004998)
 19:    261.10   0.001213    6.13  0.001450  (-0.006204 -0.011534 -0.035752)
 20:    274.02   0.005962   30.13  0.006790  ( 0.068245  0.045836 -0.005637)
 21:    279.13   0.008009   40.47  0.008954  ( 0.034147 -0.088156 -0.004039)
 22:    287.89   0.005294   26.75  0.005738  ( 0.004348 -0.061766  0.043639)
 23:    303.96   0.002833   14.32  0.002908  ( 0.016293  0.050874  0.007397)
 24:    322.34   0.001524    7.70  0.001475  (-0.014796 -0.031607  0.016039)
 25:    327.86   0.005466   27.62  0.005202  (-0.051540  0.033201 -0.037996)
 26:    347.08   0.007381   37.30  0.006636  ( 0.001766  0.075091  0.031536)
 27:    367.53   0.014550   73.53  0.012354  ( 0.040400  0.036503 -0.096899)
 28:    379.42   0.009837   49.71  0.008090  (-0.088333  0.016915 -0.001238)
 29:    404.81   0.039936  201.82  0.030786  ( 0.166211  0.046279 -0.031909)
 30:    415.72   0.006811   34.42  0.005113  (-0.004978 -0.067450  0.023209)
 31:    425.52   0.021030  106.28  0.015423  (-0.019105  0.074414  0.097572)
 32:    445.65   0.002455   12.41  0.001719  (-0.019228  0.036707  0.001419)
 33:    454.75   0.010010   50.59  0.006869  (-0.028159  0.077608 -0.007294)
 34:    490.60   0.014979   75.70  0.009528  (-0.007771 -0.090010 -0.036957)
 35:    521.09   0.001688    8.53  0.001011  ( 0.020396  0.017816  0.016656)
 36:    552.16   0.024601  124.32  0.013904  (-0.102478 -0.044261 -0.037985)
 37:    581.01   0.008393   42.42  0.004508  ( 0.044405  0.048198 -0.014600)
 38:    625.28   0.022278  112.59  0.011119  (-0.029045  0.020666 -0.099237)
 39:    677.75   0.021358  107.94  0.009834  (-0.029829 -0.047440  0.081816)
 40:    704.75   0.011727   59.27  0.005193  ( 0.008691  0.071274 -0.006112)
 41:    734.91   0.023721  119.88  0.010073  ( 0.062861 -0.047019 -0.062532)
 42:    805.40   0.002209   11.16  0.000856  ( 0.001967 -0.005732  0.028622)
 43:    815.63   0.029631  149.74  0.011337  ( 0.051269 -0.078582 -0.050334)
 44:    836.55   0.008292   41.90  0.003093  (-0.040436  0.035565 -0.013898)
 45:    861.65   0.086712  438.21  0.031404  (-0.153045 -0.070698 -0.054619)
 46:    893.59   0.023564  119.08  0.008229  (-0.032050  0.071441  0.045807)
 47:    898.97   0.001071    5.41  0.000372  ( 0.003887  0.018662 -0.002892)
 48:    924.89   0.010671   53.93  0.003600  ( 0.018108 -0.050361  0.027134)
 49:    937.74   0.069752  352.50  0.023212  (-0.068497  0.116203 -0.070832)
 50:    953.61   0.001862    9.41  0.000609  (-0.007227  0.016939  0.016440)
 51:   1009.93   0.002613   13.21  0.000807  ( 0.024840 -0.011695 -0.007327)
 52:   1027.75   0.008458   42.75  0.002568  ( 0.015248 -0.021931 -0.043068)
 53:   1076.24   0.032335  163.41  0.009376  ( 0.005084  0.093080  0.026194)
 54:   1103.75   0.008794   44.44  0.002486  (-0.049847 -0.000811 -0.001012)
 55:   1113.07   0.043185  218.24  0.012108  ( 0.070580 -0.044290  0.071864)
 56:   1117.98   0.022590  114.16  0.006306  (-0.072201 -0.020459  0.025961)
 57:   1128.79   0.034190  172.78  0.009452  (-0.024771 -0.045697 -0.082160)
 58:   1139.40   0.024306  122.83  0.006657  ( 0.046862 -0.066458 -0.006659)
 59:   1161.15   0.007769   39.26  0.002088  (-0.015723  0.010303  0.041647)
 60:   1176.75   0.007885   39.85  0.002091  (-0.029071 -0.028599  0.020690)
 61:   1191.03   0.013420   67.82  0.003516  ( 0.047744 -0.004542  0.034870)
 62:   1215.95   0.002369   11.97  0.000608  (-0.022512 -0.004594 -0.008954)
 63:   1226.21   0.018700   94.50  0.004759  ( 0.059054 -0.029368  0.020228)
 64:   1241.50   0.009976   50.42  0.002508  (-0.021765  0.040979  0.018833)
 65:   1260.41   0.007552   38.16  0.001870  ( 0.041407  0.002646 -0.012174)
 66:   1264.91   0.076109  384.62  0.018777  ( 0.015488  0.052059 -0.125804)
 67:   1265.18   0.007412   37.46  0.001828  (-0.029006 -0.029199 -0.011593)
 68:   1284.89   0.012922   65.30  0.003138  (-0.017189  0.018557  0.049985)
 69:   1293.09   0.004198   21.22  0.001013  ( 0.016355  0.009646  0.025546)
 70:   1320.17   0.003092   15.63  0.000731  ( 0.000320 -0.021059 -0.016952)
 71:   1327.97   0.004761   24.06  0.001119  (-0.025395  0.020716 -0.006691)
 72:   1331.08   0.006385   32.27  0.001497  (-0.023896  0.029984 -0.005183)
 73:   1345.14   0.015331   77.48  0.003557  ( 0.012193  0.057727 -0.008700)
 74:   1356.92   0.029648  149.83  0.006818  (-0.005482 -0.002262  0.082360)
 75:   1449.41   0.001149    5.81  0.000247  ( 0.002926  0.007797  0.013344)
 76:   1805.07   0.071352  360.59  0.012336  (-0.003326  0.096352  0.055143)
 77:   2820.21   0.000929    4.69  0.000103  ( 0.001799 -0.002057 -0.009762)
 78:   2889.80   0.020763  104.93  0.002242  ( 0.000535 -0.042312  0.021251)
 79:   2937.56   0.001706    8.62  0.000181  ( 0.000818  0.010633  0.008217)
 80:   2948.48   0.004289   21.67  0.000454  (-0.001094  0.004379 -0.020822)
 81:   2959.88   0.000847    4.28  0.000089  ( 0.002541 -0.003698 -0.008314)
 82:   2972.32   0.003323   16.79  0.000349  ( 0.000258  0.003539 -0.018339)
 83:   3435.65   0.030643  154.86  0.002783  (-0.048085  0.020125  0.008136)
 84:   3440.38   0.015533   78.50  0.001409  (-0.025628  0.026299 -0.007781)
 85:   3476.68   0.004285   21.65  0.000385  (-0.000508 -0.015531  0.011964)
 86:   3486.27   0.016455   83.16  0.001473  (-0.021966 -0.015481 -0.027400)
 87:   3507.39   0.036558  184.75  0.003253  ( 0.054321 -0.010336  0.013966)
 88:   3532.65   0.007874   39.79  0.000696  (-0.024847 -0.008779 -0.001084)
 89:   3634.92   0.009653   48.78  0.000829  (-0.024899 -0.005040  0.013540)

--------------------------
THERMOCHEMISTRY AT 298.15K
--------------------------

Temperature         ... 298.15 K
Pressure            ... 1.00 atm
Total Mass          ... 276.13 AMU

Throughout the following assumptions are being made:
  (1) The electronic state is orbitally nondegenerate
  (2) There are no thermally accessible electronically excited states
  (3) Hindered rotations indicated by low frequency modes are not
      treated as such but are treated as vibrations and this may
      cause some error
  (4) All equations used are the standard statistical mechanics
      equations for an ideal gas
  (5) All vibrations are strictly harmonic

freq.      19.80  E(vib)   ...       0.56
freq.      33.33  E(vib)   ...       0.55
freq.      47.45  E(vib)   ...       0.53
freq.      63.54  E(vib)   ...       0.51
freq.      65.48  E(vib)   ...       0.50
freq.      92.18  E(vib)   ...       0.47
freq.     109.48  E(vib)   ...       0.45
freq.     130.67  E(vib)   ...       0.43
freq.     132.46  E(vib)   ...       0.42
freq.     171.69  E(vib)   ...       0.38
freq.     193.34  E(vib)   ...       0.36
freq.     198.10  E(vib)   ...       0.35
freq.     231.98  E(vib)   ...       0.32
freq.     261.10  E(vib)   ...       0.30
freq.     274.02  E(vib)   ...       0.28
freq.     279.13  E(vib)   ...       0.28
freq.     287.89  E(vib)   ...       0.27
freq.     303.96  E(vib)   ...       0.26
freq.     322.34  E(vib)   ...       0.25
freq.     327.86  E(vib)   ...       0.24
freq.     347.08  E(vib)   ...       0.23
freq.     367.53  E(vib)   ...       0.21
freq.     379.42  E(vib)   ...       0.21
freq.     404.81  E(vib)   ...       0.19
freq.     415.72  E(vib)   ...       0.18
freq.     425.52  E(vib)   ...       0.18
freq.     445.65  E(vib)   ...       0.17
freq.     454.75  E(vib)   ...       0.16
freq.     490.60  E(vib)   ...       0.15
freq.     521.09  E(vib)   ...       0.13
freq.     552.16  E(vib)   ...       0.12
freq.     581.01  E(vib)   ...       0.11
freq.     625.28  E(vib)   ...       0.09
freq.     677.75  E(vib)   ...       0.08
freq.     704.75  E(vib)   ...       0.07
freq.     734.91  E(vib)   ...       0.06
freq.     805.40  E(vib)   ...       0.05
freq.     815.63  E(vib)   ...       0.05
freq.     836.55  E(vib)   ...       0.04
freq.     861.65  E(vib)   ...       0.04
freq.     893.59  E(vib)   ...       0.03
freq.     898.97  E(vib)   ...       0.03
freq.     924.89  E(vib)   ...       0.03
freq.     937.74  E(vib)   ...       0.03
freq.     953.61  E(vib)   ...       0.03
freq.    1009.93  E(vib)   ...       0.02
freq.    1027.75  E(vib)   ...       0.02
freq.    1076.24  E(vib)   ...       0.02
freq.    1103.75  E(vib)   ...       0.02
freq.    1113.07  E(vib)   ...       0.01
freq.    1117.98  E(vib)   ...       0.01
freq.    1128.79  E(vib)   ...       0.01
freq.    1139.40  E(vib)   ...       0.01
freq.    1161.15  E(vib)   ...       0.01
freq.    1176.75  E(vib)   ...       0.01
freq.    1191.03  E(vib)   ...       0.01
freq.    1215.95  E(vib)   ...       0.01
freq.    1226.21  E(vib)   ...       0.01
freq.    1241.50  E(vib)   ...       0.01
freq.    1260.41  E(vib)   ...       0.01
freq.    1264.91  E(vib)   ...       0.01
freq.    1265.18  E(vib)   ...       0.01
freq.    1284.89  E(vib)   ...       0.01
freq.    1293.09  E(vib)   ...       0.01
freq.    1320.17  E(vib)   ...       0.01
freq.    1327.97  E(vib)   ...       0.01
freq.    1331.08  E(vib)   ...       0.01
freq.    1345.14  E(vib)   ...       0.01
freq.    1356.92  E(vib)   ...       0.01
freq.    1449.41  E(vib)   ...       0.00
freq.    1805.07  E(vib)   ...       0.00
freq.    2820.21  E(vib)   ...       0.00
freq.    2889.80  E(vib)   ...       0.00
freq.    2937.56  E(vib)   ...       0.00
freq.    2948.48  E(vib)   ...       0.00
freq.    2959.88  E(vib)   ...       0.00
freq.    2972.32  E(vib)   ...       0.00
freq.    3435.65  E(vib)   ...       0.00
freq.    3440.38  E(vib)   ...       0.00
freq.    3476.68  E(vib)   ...       0.00
freq.    3486.27  E(vib)   ...       0.00
freq.    3507.39  E(vib)   ...       0.00
freq.    3532.65  E(vib)   ...       0.00
freq.    3634.92  E(vib)   ...       0.00

------------
INNER ENERGY
------------

The inner energy is: U= E(el) + E(ZPE) + E(vib) + E(rot) + E(trans)
    E(el)   - is the total energy from the electronic structure calculation
              = E(kin-el) + E(nuc-el) + E(el-el) + E(nuc-nuc)
    E(ZPE)  - the the zero temperature vibrational energy from the frequency calculation
    E(vib)  - the the finite temperature correction to E(ZPE) due to population
              of excited vibrational states
    E(rot)  - is the rotational thermal energy
    E(trans)- is the translational thermal energy

Summary of contributions to the inner energy U:
Electronic energy                ...    -62.81652166 Eh
Zero point energy                ...      0.21386935 Eh     134.20 kcal/mol
Thermal vibrational correction   ...      0.01698152 Eh      10.66 kcal/mol
Thermal rotational correction    ...      0.00141627 Eh       0.89 kcal/mol
Thermal translational correction ...      0.00141627 Eh       0.89 kcal/mol
-----------------------------------------------------------------------
Total thermal energy                    -62.58283825 Eh

Summary of corrections to the electronic energy:
(perhaps to be used in another calculation)
Total thermal correction                  0.01981406 Eh      12.43 kcal/mol
Non-thermal (ZPE) correction              0.21386935 Eh     134.20 kcal/mol
-----------------------------------------------------------------------
Total correction                          0.23368341 Eh     146.64 kcal/mol

--------
ENTHALPY
--------

The enthalpy is H = U + kB*T
                kB is Boltzmann's constant
Total free energy                 ...    -62.58283825 Eh
Thermal Enthalpy correction       ...      0.00094421 Eh       0.59 kcal/mol
-----------------------------------------------------------------------
Total Enthalpy                    ...    -62.58189404 Eh

Note: Only C1 symmetry has been detected, increase convergence thresholds
      if your molecule has a higher symmetry. Symmetry factor of 1.0 is
      used for the rotational entropy correction.

Note: Rotational entropy computed according to Herzberg
Infrared and Raman Spectra, Chapter V,1, Van Nostrand Reinhold, 1945
Point Group:  C1, Symmetry Number:   1
Rotational constants in cm-1:     0.024785     0.008804     0.007260

Vibrational entropy computed according to the QRRHO of S. Grimme
Chem.Eur.J. 2012 18 9955

-------
ENTROPY

                             ****ORCA TERMINATED NORMALLY****
TOTAL RUN TIME: 0 days 0 hours 7 minutes 23 seconds 720 msec
