                         Program Version 5.0.3 -  RELEASE  -
|  1> ! XTB2 opt numfreq
|  2> * XYZ 0 1
|  3> O -3.0471 0.6683 -1.9405
|  4> P -3.5053 -0.0086 -0.6976
|  5> O -4.2932 -1.3796 -0.8870
|  6> O -4.5953 0.8537 0.0900
|  7> O -2.4024 -0.3437 0.4093
|  8> C -1.4030 0.6280 0.6489
|  9> C -0.1636 0.4294 -0.2393
| 10> O 0.7924 1.4748 0.0403
| 11> C 1.7736 1.1006 0.9918
| 12> O 2.5834 2.2349 1.2686
| 13> C 2.6808 -0.0256 0.4499
| 14> O 3.8038 0.5026 -0.2818
| 15> C 1.9086 -0.9534 -0.4901
| 16> O 2.4505 -2.2832 -0.4303
| 17> C 0.4292 -0.9929 -0.1115
| 18> O -0.2587 -1.9174 -0.9567
| 19> H -4.5265 -1.7690 -0.0266
| 20> H -5.1528 1.3336 -0.5514
| 21> H -1.1215 0.5610 1.7056
| 22> H -1.8085 1.6384 0.5147
| 23> H -0.4748 0.5750 -1.2802
| 24> H 1.2851 0.7894 1.9226
| 25> H 1.9547 2.9244 1.5444
| 26> H 3.1176 -0.5722 1.2933
| 27> H 3.9081 1.4198 0.0522
| 28> H 2.0128 -0.6376 -1.5362
| 29> H 3.3870 -2.1914 -0.6968
| 30> H 0.3256 -1.3717 0.9130
| 31> H 0.3396 -2.6876 -1.0410
| 32> *
| 33>
| 34>                          ****END OF INPUT****
FINAL SINGLE POINT ENERGY       -58.731221333070
FINAL SINGLE POINT ENERGY       -58.739533733720
FINAL SINGLE POINT ENERGY       -58.742977485230
FINAL SINGLE POINT ENERGY       -58.744151972560
FINAL SINGLE POINT ENERGY       -58.745073662000
FINAL SINGLE POINT ENERGY       -58.745842472690
FINAL SINGLE POINT ENERGY       -58.746316043690
FINAL SINGLE POINT ENERGY       -58.746478281410
FINAL SINGLE POINT ENERGY       -58.746655144760
FINAL SINGLE POINT ENERGY       -58.746767618040
FINAL SINGLE POINT ENERGY       -58.753964138550
FINAL SINGLE POINT ENERGY       -58.754117316170
FINAL SINGLE POINT ENERGY       -58.754201229820
FINAL SINGLE POINT ENERGY       -58.754251313030
FINAL SINGLE POINT ENERGY       -58.754274428610
FINAL SINGLE POINT ENERGY       -58.754181235530
FINAL SINGLE POINT ENERGY       -58.754284369100
FINAL SINGLE POINT ENERGY       -58.754263557630
FINAL SINGLE POINT ENERGY       -58.754289212140
                    ***********************HURRAY********************

CARTESIAN COORDINATES (ANGSTROEM)
---------------------------------
  O    -3.384983    1.221181   -1.000003
  P    -3.349996   -0.083487   -0.334679
  O    -3.042577   -1.363928   -1.196141
  O    -4.699589   -0.536584    0.351944
  O    -2.297195   -0.136089    0.903015
  C    -1.271253    0.822530    0.916445
  C    -0.323650    0.646077   -0.281856
  O     0.744949    1.567247   -0.241448
  C     1.796014    1.357019    0.671661
  O     2.929965    1.938278    0.104654
  C     2.107588   -0.139530    0.892737
  O     3.462561   -0.360805    1.156203
  C     1.661798   -0.892881   -0.370998
  O     2.048897   -2.241791   -0.329211
  C     0.136759   -0.816119   -0.438057
  O    -0.348161   -1.322368   -1.665979
  H    -2.133417   -1.372611   -1.543896
  H    -5.277615    0.220669    0.436820
  H    -0.737626    0.685570    1.861413
  H    -1.691337    1.831677    0.870126
  H    -0.879127    0.924086   -1.184970
  H     1.567805    1.853326    1.635117
  H     2.636030    2.692894   -0.419184
  H     1.552659   -0.532636    1.752238
  H     3.966916    0.309493    0.671201
  H     2.096379   -0.402723   -1.257820
  H     2.884207   -2.283528    0.157987
  H    -0.264365   -1.424992    0.386656
  H     0.108463   -2.159975   -1.826377

FINAL SINGLE POINT ENERGY       -58.754290075090

VIBRATIONAL FREQUENCIES
-----------------------

Scaling factor for frequencies =  1.000000000 (already applied!)

   0:         0.00 cm**-1
   1:         0.00 cm**-1
   2:         0.00 cm**-1
   3:         0.00 cm**-1
   4:         0.00 cm**-1
   5:         0.00 cm**-1
   6:        36.95 cm**-1
   7:        43.43 cm**-1
   8:        64.46 cm**-1
   9:        88.42 cm**-1
  10:        98.55 cm**-1
  11:       130.35 cm**-1
  12:       151.08 cm**-1
  13:       194.16 cm**-1
  14:       215.42 cm**-1
  15:       217.55 cm**-1
  16:       240.41 cm**-1
  17:       251.98 cm**-1
  18:       276.99 cm**-1
  19:       282.83 cm**-1
  20:       305.93 cm**-1
  21:       327.23 cm**-1
  22:       361.96 cm**-1
  23:       368.32 cm**-1
  24:       393.31 cm**-1
  25:       404.29 cm**-1
  26:       407.79 cm**-1
  27:       420.05 cm**-1
  28:       442.40 cm**-1
  29:       449.61 cm**-1
  30:       461.22 cm**-1
  31:       489.04 cm**-1
  32:       497.64 cm**-1
  33:       554.11 cm**-1
  34:       561.42 cm**-1
  35:       581.22 cm**-1
  36:       689.62 cm**-1
  37:       714.71 cm**-1
  38:       733.86 cm**-1
  39:       835.51 cm**-1
  40:       870.41 cm**-1
  41:       886.28 cm**-1
  42:       891.58 cm**-1
  43:       910.65 cm**-1
  44:       985.10 cm**-1
  45:      1006.93 cm**-1
  46:      1028.03 cm**-1
  47:      1039.67 cm**-1
  48:      1052.89 cm**-1
  49:      1077.39 cm**-1
  50:      1093.63 cm**-1
  51:      1109.47 cm**-1
  52:      1116.38 cm**-1
  53:      1123.16 cm**-1
  54:      1137.28 cm**-1
  55:      1151.69 cm**-1
  56:      1168.18 cm**-1
  57:      1191.24 cm**-1
  58:      1202.00 cm**-1
  59:      1227.23 cm**-1
  60:      1232.36 cm**-1
  61:      1256.15 cm**-1
  62:      1259.33 cm**-1
  63:      1274.28 cm**-1
  64:      1277.52 cm**-1
  65:      1285.68 cm**-1
  66:      1287.66 cm**-1
  67:      1317.04 cm**-1
  68:      1326.42 cm**-1
  69:      1336.30 cm**-1
  70:      1341.04 cm**-1
  71:      1350.22 cm**-1
  72:      1355.31 cm**-1
  73:      1452.28 cm**-1
  74:      2786.62 cm**-1
  75:      2860.80 cm**-1
  76:      2880.56 cm**-1
  77:      2938.66 cm**-1
  78:      2939.92 cm**-1
  79:      2946.26 cm**-1
  80:      2957.36 cm**-1
  81:      3238.05 cm**-1
  82:      3457.38 cm**-1
  83:      3469.34 cm**-1
  84:      3492.79 cm**-1
  85:      3538.32 cm**-1
  86:      3615.81 cm**-1

IR SPECTRUM
-----------

 Mode   freq       eps      Int      T**2         TX        TY        TZ
       cm**-1   L/(mol*cm) km/mol    a.u.
----------------------------------------------------------------------------
  6:     36.95   0.000214    1.08  0.001811  ( 0.005822 -0.041933 -0.004298)
  7:     43.43   0.000488    2.46  0.003503  (-0.013877  0.051971 -0.024695)
  8:     64.46   0.000169    0.85  0.000818  (-0.008096  0.024119 -0.013065)
  9:     88.42   0.001443    7.29  0.005093  ( 0.039688 -0.020191  0.055772)
 10:     98.55   0.000193    0.98  0.000612  (-0.008369  0.019286  0.013052)
 11:    130.35   0.000711    3.59  0.001702  ( 0.036966 -0.006881  0.016989)
 12:    151.08   0.001794    9.07  0.003707  ( 0.040895 -0.019249  0.040787)
 13:    194.16   0.015770   79.70  0.025346  ( 0.031838  0.000201  0.155989)
 14:    215.42   0.003156   15.95  0.004571  (-0.004455  0.056827  0.036363)
 15:    217.55   0.019829  100.21  0.028444  (-0.066206 -0.098711 -0.119653)
 16:    240.41   0.003459   17.48  0.004489  ( 0.053403  0.005915  0.040030)
 17:    251.98   0.001104    5.58  0.001368  ( 0.028101 -0.015735 -0.018175)
 18:    276.99   0.002547   12.87  0.002869  ( 0.016630 -0.050456  0.006852)
 19:    282.83   0.001241    6.27  0.001370  ( 0.020690  0.024679  0.018236)
 20:    305.93   0.001990   10.06  0.002030  (-0.013501 -0.006197  0.042534)
 21:    327.23   0.004848   24.50  0.004623  ( 0.057449 -0.000888  0.036357)
 22:    361.96   0.002064   10.43  0.001779  (-0.004897 -0.027013  0.032023)
 23:    368.32   0.008155   41.21  0.006910  (-0.016703  0.013360 -0.080325)
 24:    393.31   0.019741   99.77  0.015663  (-0.090102 -0.068585  0.053302)
 25:    404.29   0.001599    8.08  0.001234  ( 0.020709  0.028343  0.001418)
 26:    407.79   0.017932   90.62  0.013722  (-0.110529  0.035600  0.015432)
 27:    420.05   0.004483   22.65  0.003330  (-0.051662 -0.021713  0.013786)
 28:    442.40   0.034864  176.19  0.024593  ( 0.045382  0.105266  0.107015)
 29:    449.61   0.008284   41.87  0.005750  ( 0.044262 -0.010176 -0.060724)
 30:    461.22   0.051108  258.28  0.034580  (-0.103462  0.081308  0.131394)
 31:    489.04   0.004333   21.90  0.002765  ( 0.047145  0.003668  0.023004)
 32:    497.64   0.005205   26.30  0.003264  (-0.038623  0.001963  0.042052)
 33:    554.11   0.016701   84.40  0.009406  ( 0.018039 -0.000370  0.095289)
 34:    561.42   0.002079   10.51  0.001156  (-0.019875  0.027006  0.005584)
 35:    581.22   0.027804  140.51  0.014928  (-0.020708  0.071511 -0.096880)
 36:    689.62   0.001749    8.84  0.000791  ( 0.005158 -0.020637  0.018410)
 37:    714.71   0.041783  211.16  0.018244  (-0.086553 -0.036706 -0.096980)
 38:    733.86   0.018186   91.90  0.007733  ( 0.058025 -0.035894  0.055480)
 39:    835.51   0.025215  127.43  0.009418  ( 0.083977  0.024139  0.042226)
 40:    870.41   0.007605   38.43  0.002726  (-0.046391 -0.022574  0.008043)
 41:    886.28   0.071327  360.46  0.025115  (-0.101640  0.038270  0.115410)
 42:    891.58   0.001711    8.64  0.000599  (-0.003436  0.023023  0.007539)
 43:    910.65   0.018880   95.41  0.006470  (-0.036599 -0.071373  0.006037)
 44:    985.10   0.010328   52.19  0.003272  ( 0.004558  0.045156 -0.034812)
 45:   1006.93   0.063648  321.65  0.019725  ( 0.087921  0.107224  0.022324)
 46:   1028.03   0.007849   39.67  0.002383  (-0.034313  0.002762 -0.034606)
 47:   1039.67   0.015977   80.74  0.004796  ( 0.029639  0.055988  0.027975)
 48:   1052.89   0.017115   86.49  0.005073  ( 0.043988  0.016087  0.053655)
 49:   1077.39   0.025439  128.56  0.007368  ( 0.073329  0.016293  0.041542)
 50:   1093.63   0.000372    1.88  0.000106  ( 0.007433 -0.000806  0.007081)
 51:   1109.47   0.012893   65.15  0.003626  ( 0.051413  0.015462 -0.027276)
 52:   1116.38   0.026443  133.63  0.007392  (-0.071993 -0.037702 -0.028058)
 53:   1123.16   0.003127   15.80  0.000869  (-0.003508  0.025917  0.013589)
 54:   1137.28   0.027793  140.45  0.007626  (-0.062349 -0.045904  0.040394)
 55:   1151.69   0.018552   93.76  0.005027  ( 0.053314 -0.046163  0.007323)
 56:   1168.18   0.019332   97.69  0.005164  (-0.052628 -0.003025 -0.048840)
 57:   1191.24   0.008355   42.22  0.002189  (-0.022261 -0.041051 -0.002817)
 58:   1202.00   0.001245    6.29  0.000323  ( 0.007762  0.003778  0.015773)
 59:   1227.23   0.007475   37.77  0.001901  (-0.029274  0.014676  0.028781)
 60:   1232.36   0.038558  194.86  0.009764  (-0.082933  0.023225 -0.048442)
 61:   1256.15   0.026072  131.76  0.006477  ( 0.019491  0.078071 -0.001421)
 62:   1259.33   0.038207  193.08  0.009468  ( 0.004275  0.083881 -0.049126)
 63:   1274.28   0.039982  202.05  0.009791  ( 0.026139  0.094586  0.012708)
 64:   1277.52   0.010736   54.25  0.002622  ( 0.029146  0.029740 -0.029808)
 65:   1285.68   0.001099    5.55  0.000267  (-0.012065 -0.005180 -0.009713)
 66:   1287.66   0.008437   42.64  0.002045  (-0.038442  0.019798 -0.013226)
 67:   1317.04   0.003907   19.74  0.000926  (-0.008719  0.024243 -0.016183)
 68:   1326.42   0.001603    8.10  0.000377  (-0.018512 -0.005814  0.000756)
 69:   1336.30   0.011962   60.45  0.002793  (-0.031505  0.038715 -0.017377)
 70:   1341.04   0.007088   35.82  0.001649  (-0.016748 -0.010914 -0.035352)
 71:   1350.22   0.000449    2.27  0.000104  (-0.006910  0.003347 -0.006693)
 72:   1355.31   0.012007   60.68  0.002765  (-0.037271  0.031466 -0.019630)
 73:   1452.28   0.000101    0.51  0.000022  ( 0.003818  0.002395  0.001218)
 74:   2786.62   0.019357   97.82  0.002168  (-0.003737  0.023067  0.040270)
 75:   2860.80   0.004581   23.15  0.000500  (-0.001906 -0.018686  0.012118)
 76:   2880.56   0.012502   63.18  0.001354  (-0.000713  0.020794 -0.030356)
 77:   2938.66   0.008928   45.12  0.000948  (-0.002684 -0.020426  0.022883)
 78:   2939.92   0.001737    8.78  0.000184  (-0.001191 -0.010545  0.008473)
 79:   2946.26   0.004000   20.21  0.000424  ( 0.001170 -0.020495 -0.001506)
 80:   2957.36   0.005746   29.04  0.000606  ( 0.001799  0.005294  0.023979)
 81:   3238.05   0.127743  645.56  0.012311  (-0.106569  0.020109  0.023446)
 82:   3457.38   0.021511  108.71  0.001942  ( 0.033850  0.026619 -0.009336)
 83:   3469.34   0.008718   44.06  0.000784  (-0.019818 -0.007141 -0.018449)
 84:   3492.79   0.016547   83.62  0.001478  ( 0.021900 -0.029901 -0.010234)
 85:   3538.32   0.009673   48.88  0.000853  ( 0.015160 -0.021419  0.012826)
 86:   3615.81   0.020730  104.76  0.001789  (-0.035092  0.022966  0.005496)

--------------------------
THERMOCHEMISTRY AT 298.15K
--------------------------

Temperature         ... 298.15 K
Pressure            ... 1.00 atm
Total Mass          ... 260.13 AMU

Throughout the following assumptions are being made:
  (1) The electronic state is orbitally nondegenerate
  (2) There are no thermally accessible electronically excited states
  (3) Hindered rotations indicated by low frequency modes are not
      treated as such but are treated as vibrations and this may
      cause some error
  (4) All equations used are the standard statistical mechanics
      equations for an ideal gas
  (5) All vibrations are strictly harmonic

freq.      36.95  E(vib)   ...       0.54
freq.      43.43  E(vib)   ...       0.53
freq.      64.46  E(vib)   ...       0.51
freq.      88.42  E(vib)   ...       0.48
freq.      98.55  E(vib)   ...       0.46
freq.     130.35  E(vib)   ...       0.43
freq.     151.08  E(vib)   ...       0.40
freq.     194.16  E(vib)   ...       0.36
freq.     215.42  E(vib)   ...       0.34
freq.     217.55  E(vib)   ...       0.33
freq.     240.41  E(vib)   ...       0.31
freq.     251.98  E(vib)   ...       0.30
freq.     276.99  E(vib)   ...       0.28
freq.     282.83  E(vib)   ...       0.28
freq.     305.93  E(vib)   ...       0.26
freq.     327.23  E(vib)   ...       0.24
freq.     361.96  E(vib)   ...       0.22
freq.     368.32  E(vib)   ...       0.21
freq.     393.31  E(vib)   ...       0.20
freq.     404.29  E(vib)   ...       0.19
freq.     407.79  E(vib)   ...       0.19
freq.     420.05  E(vib)   ...       0.18
freq.     442.40  E(vib)   ...       0.17
freq.     449.61  E(vib)   ...       0.17
freq.     461.22  E(vib)   ...       0.16
freq.     489.04  E(vib)   ...       0.15
freq.     497.64  E(vib)   ...       0.14
freq.     554.11  E(vib)   ...       0.12
freq.     561.42  E(vib)   ...       0.11
freq.     581.22  E(vib)   ...       0.11
freq.     689.62  E(vib)   ...       0.07
freq.     714.71  E(vib)   ...       0.07
freq.     733.86  E(vib)   ...       0.06
freq.     835.51  E(vib)   ...       0.04
freq.     870.41  E(vib)   ...       0.04
freq.     886.28  E(vib)   ...       0.04
freq.     891.58  E(vib)   ...       0.03
freq.     910.65  E(vib)   ...       0.03
freq.     985.10  E(vib)   ...       0.02
freq.    1006.93  E(vib)   ...       0.02
freq.    1028.03  E(vib)   ...       0.02
freq.    1039.67  E(vib)   ...       0.02
freq.    1052.89  E(vib)   ...       0.02
freq.    1077.39  E(vib)   ...       0.02
freq.    1093.63  E(vib)   ...       0.02
freq.    1109.47  E(vib)   ...       0.02
freq.    1116.38  E(vib)   ...       0.01
freq.    1123.16  E(vib)   ...       0.01
freq.    1137.28  E(vib)   ...       0.01
freq.    1151.69  E(vib)   ...       0.01
freq.    1168.18  E(vib)   ...       0.01
freq.    1191.24  E(vib)   ...       0.01
freq.    1202.00  E(vib)   ...       0.01
freq.    1227.23  E(vib)   ...       0.01
freq.    1232.36  E(vib)   ...       0.01
freq.    1256.15  E(vib)   ...       0.01
freq.    1259.33  E(vib)   ...       0.01
freq.    1274.28  E(vib)   ...       0.01
freq.    1277.52  E(vib)   ...       0.01
freq.    1285.68  E(vib)   ...       0.01
freq.    1287.66  E(vib)   ...       0.01
freq.    1317.04  E(vib)   ...       0.01
freq.    1326.42  E(vib)   ...       0.01
freq.    1336.30  E(vib)   ...       0.01
freq.    1341.04  E(vib)   ...       0.01
freq.    1350.22  E(vib)   ...       0.01
freq.    1355.31  E(vib)   ...       0.01
freq.    1452.28  E(vib)   ...       0.00
freq.    2786.62  E(vib)   ...       0.00
freq.    2860.80  E(vib)   ...       0.00
freq.    2880.56  E(vib)   ...       0.00
freq.    2938.66  E(vib)   ...       0.00
freq.    2939.92  E(vib)   ...       0.00
freq.    2946.26  E(vib)   ...       0.00
freq.    2957.36  E(vib)   ...       0.00
freq.    3238.05  E(vib)   ...       0.00
freq.    3457.38  E(vib)   ...       0.00
freq.    3469.34  E(vib)   ...       0.00
freq.    3492.79  E(vib)   ...       0.00
freq.    3538.32  E(vib)   ...       0.00
freq.    3615.81  E(vib)   ...       0.00

------------
INNER ENERGY
------------

The inner energy is: U= E(el) + E(ZPE) + E(vib) + E(rot) + E(trans)
    E(el)   - is the total energy from the electronic structure calculation
              = E(kin-el) + E(nuc-el) + E(el-el) + E(nuc-nuc)
    E(ZPE)  - the the zero temperature vibrational energy from the frequency calculation
    E(vib)  - the the finite temperature correction to E(ZPE) due to population
              of excited vibrational states
    E(rot)  - is the rotational thermal energy
    E(trans)- is the translational thermal energy

Summary of contributions to the inner energy U:
Electronic energy                ...    -58.75429008 Eh
Zero point energy                ...      0.21194824 Eh     133.00 kcal/mol
Thermal vibrational correction   ...      0.01451022 Eh       9.11 kcal/mol
Thermal rotational correction    ...      0.00141627 Eh       0.89 kcal/mol
Thermal translational correction ...      0.00141627 Eh       0.89 kcal/mol
-----------------------------------------------------------------------
Total thermal energy                    -58.52499907 Eh

Summary of corrections to the electronic energy:
(perhaps to be used in another calculation)
Total thermal correction                  0.01734276 Eh      10.88 kcal/mol
Non-thermal (ZPE) correction              0.21194824 Eh     133.00 kcal/mol
-----------------------------------------------------------------------
Total correction                          0.22929101 Eh     143.88 kcal/mol

--------
ENTHALPY
--------

The enthalpy is H = U + kB*T
                kB is Boltzmann's constant
Total free energy                 ...    -58.52499907 Eh
Thermal Enthalpy correction       ...      0.00094421 Eh       0.59 kcal/mol
-----------------------------------------------------------------------
Total Enthalpy                    ...    -58.52405486 Eh

Note: Only C1 symmetry has been detected, increase convergence thresholds
      if your molecule has a higher symmetry. Symmetry factor of 1.0 is
      used for the rotational entropy correction.

Note: Rotational entropy computed according to Herzberg
Infrared and Raman Spectra, Chapter V,1, Van Nostrand Reinhold, 1945
Point Group:  C1, Symmetry Number:   1
Rotational constants in cm-1:     0.033422     0.009132     0.008117

Vibrational entropy computed according to the QRRHO of S. Grimme
Chem.Eur.J. 2012 18 9955

-------
ENTROPY
-------

The entropy contributions are T*S = T*(S(el)+S(vib)+S(rot)+S(trans))

                             ****ORCA TERMINATED NORMALLY****
TOTAL RUN TIME: 0 days 0 hours 7 minutes 13 seconds 598 msec
