                         Program Version 5.0.3 -  RELEASE  -
|  1> ! XTB2 opt numfreq
|  2> * XYZ 0 1
|  3> O -4.1162 2.0355 -1.0696
|  4> P -3.5976 0.6754 -0.7644
|  5> O -3.1550 -0.1806 -2.0356
|  6> O -4.6621 -0.2890 -0.0744
|  7> O -2.3344 0.5861 0.2235
|  8> C -1.1379 1.2164 -0.2055
|  9> C 0.0151 0.2041 -0.2884
| 10> O 1.1761 0.9113 -0.7455
| 11> C 2.2899 0.0475 -0.9205
| 12> O 3.3641 0.8254 -1.4340
| 13> C 2.7266 -0.6056 0.4010
| 14> O 3.8126 -1.5136 0.1504
| 15> C 1.5399 -1.3423 1.0277
| 16> O 1.8531 -1.7488 2.3734
| 17> C 0.2828 -0.4581 1.0784
| 18> O -0.8091 -1.2806 1.5116
| 19> H -3.8397 -0.1678 -2.7281
| 20> H -5.1267 0.1548 0.6602
| 21> H -0.8985 2.0141 0.5088
| 22> H -1.2707 1.7089 -1.1793
| 23> H -0.2606 -0.5658 -1.0219
| 24> H 2.0642 -0.7113 -1.6803
| 25> H 3.3341 1.6548 -0.9253
| 26> H 3.1054 0.1514 1.1003
| 27> H 4.4730 -1.0115 -0.3646
| 28> H 1.3396 -2.2687 0.4727
| 29> H 1.0386 -2.1753 2.7060
| 30> H 0.4255 0.3133 1.8474
| 31> H -1.6321 -0.7646 1.3759
| 32> *
| 33>
| 34>                          ****END OF INPUT****
FINAL SINGLE POINT ENERGY       -58.735859822070
FINAL SINGLE POINT ENERGY       -58.742814828140
FINAL SINGLE POINT ENERGY       -58.745489751020
FINAL SINGLE POINT ENERGY       -58.746632394130
FINAL SINGLE POINT ENERGY       -58.747368748130
FINAL SINGLE POINT ENERGY       -58.747846288090
FINAL SINGLE POINT ENERGY       -58.748023724010
FINAL SINGLE POINT ENERGY       -58.748068029120
FINAL SINGLE POINT ENERGY       -58.748079411520
FINAL SINGLE POINT ENERGY       -58.748083435740
                    ***********************HURRAY********************

CARTESIAN COORDINATES (ANGSTROEM)
---------------------------------
  O    -3.192016    1.257929   -2.008586
  P    -3.307701    0.421977   -0.815909
  O    -2.955396   -1.113395   -0.999143
  O    -4.742815    0.363646   -0.139510
  O    -2.390944    0.858043    0.423594
  C    -1.139430    1.439555    0.122764
  C    -0.063164    0.386360   -0.152525
  O     1.093027    1.103698   -0.519041
  C     2.165053    0.272246   -0.893848
  O     3.202767    1.075477   -1.338326
  C     2.623007   -0.625152    0.276874
  O     3.589977   -1.526435   -0.188193
  C     1.438483   -1.409676    0.840790
  O     1.824567   -1.996865    2.052392
  C     0.218246   -0.495865    1.075292
  O    -0.849761   -1.352420    1.391005
  H    -3.246842   -1.435627   -1.850643
  H    -5.184497    1.209056   -0.201891
  H    -0.854839    2.044472    0.987332
  H    -1.228457    2.079260   -0.760102
  H    -0.397418   -0.255792   -0.984347
  H     1.881496   -0.374212   -1.741653
  H     3.248078    1.848223   -0.761519
  H     3.034060    0.008979    1.079545
  H     4.251518   -1.024025   -0.682003
  H     1.157723   -2.183784    0.110294
  H     1.055735   -2.467539    2.397708
  H     0.447602    0.165135    1.929365
  H    -1.678057   -0.857869    1.350182

FINAL SINGLE POINT ENERGY       -58.748086113440

VIBRATIONAL FREQUENCIES
-----------------------

Scaling factor for frequencies =  1.000000000 (already applied!)

   0:         0.00 cm**-1
   1:         0.00 cm**-1
   2:         0.00 cm**-1
   3:         0.00 cm**-1
   4:         0.00 cm**-1
   5:         0.00 cm**-1
   6:        21.48 cm**-1
   7:        30.38 cm**-1
   8:        43.16 cm**-1
   9:        67.87 cm**-1
  10:        76.51 cm**-1
  11:       139.04 cm**-1
  12:       148.29 cm**-1
  13:       186.06 cm**-1
  14:       216.48 cm**-1
  15:       225.76 cm**-1
  16:       234.01 cm**-1
  17:       237.50 cm**-1
  18:       251.08 cm**-1
  19:       267.41 cm**-1
  20:       284.50 cm**-1
  21:       319.52 cm**-1
  22:       335.49 cm**-1
  23:       351.77 cm**-1
  24:       361.82 cm**-1
  25:       367.80 cm**-1
  26:       375.44 cm**-1
  27:       392.33 cm**-1
  28:       400.66 cm**-1
  29:       409.21 cm**-1
  30:       418.53 cm**-1
  31:       443.18 cm**-1
  32:       480.41 cm**-1
  33:       494.98 cm**-1
  34:       530.45 cm**-1
  35:       569.03 cm**-1
  36:       592.09 cm**-1
  37:       645.20 cm**-1
  38:       746.36 cm**-1
  39:       819.57 cm**-1
  40:       859.92 cm**-1
  41:       885.82 cm**-1
  42:       906.41 cm**-1
  43:       913.21 cm**-1
  44:       984.14 cm**-1
  45:      1002.50 cm**-1
  46:      1033.72 cm**-1
  47:      1056.00 cm**-1
  48:      1067.66 cm**-1
  49:      1091.03 cm**-1
  50:      1102.78 cm**-1
  51:      1107.39 cm**-1
  52:      1110.74 cm**-1
  53:      1125.93 cm**-1
  54:      1133.63 cm**-1
  55:      1141.09 cm**-1
  56:      1148.88 cm**-1
  57:      1193.30 cm**-1
  58:      1202.83 cm**-1
  59:      1227.13 cm**-1
  60:      1244.33 cm**-1
  61:      1254.15 cm**-1
  62:      1263.21 cm**-1
  63:      1272.13 cm**-1
  64:      1276.12 cm**-1
  65:      1280.82 cm**-1
  66:      1307.29 cm**-1
  67:      1314.99 cm**-1
  68:      1325.37 cm**-1
  69:      1332.92 cm**-1
  70:      1338.06 cm**-1
  71:      1343.60 cm**-1
  72:      1368.51 cm**-1
  73:      1451.79 cm**-1
  74:      2837.03 cm**-1
  75:      2850.29 cm**-1
  76:      2852.82 cm**-1
  77:      2861.10 cm**-1
  78:      2880.13 cm**-1
  79:      2951.98 cm**-1
  80:      2969.92 cm**-1
  81:      3498.36 cm**-1
  82:      3505.27 cm**-1
  83:      3522.82 cm**-1
  84:      3524.99 cm**-1
  85:      3622.12 cm**-1
  86:      3627.77 cm**-1

IR SPECTRUM
-----------

 Mode   freq       eps      Int      T**2         TX        TY        TZ
       cm**-1   L/(mol*cm) km/mol    a.u.
----------------------------------------------------------------------------
  6:     21.48   0.000108    0.55  0.001568  ( 0.012047 -0.028524 -0.024676)
  7:     30.38   0.000069    0.35  0.000711  ( 0.003630  0.025683 -0.006145)
  8:     43.16   0.000546    2.76  0.003949  (-0.062060  0.009817 -0.001088)
  9:     67.87   0.000043    0.22  0.000199  (-0.009153  0.006552 -0.008499)
 10:     76.51   0.000993    5.02  0.004049  (-0.045816  0.044017 -0.003575)
 11:    139.04   0.001207    6.10  0.002710  (-0.038131 -0.035294  0.003162)
 12:    148.29   0.000510    2.58  0.001074  (-0.017327  0.027717 -0.002342)
 13:    186.06   0.012127   61.29  0.020340  (-0.127570 -0.061291  0.017586)
 14:    216.48   0.001877    9.48  0.002706  (-0.018506 -0.005430  0.048308)
 15:    225.76   0.017135   86.59  0.023685  (-0.097538 -0.006888  0.118843)
 16:    234.01   0.003151   15.92  0.004202  (-0.044582  0.037773 -0.028063)
 17:    237.50   0.010640   53.77  0.013980  (-0.074991  0.043386 -0.080462)
 18:    251.08   0.008466   42.78  0.010522  (-0.032511 -0.057576 -0.078422)
 19:    267.41   0.010370   52.41  0.012102  ( 0.070552 -0.057834  0.061477)
 20:    284.50   0.001082    5.47  0.001186  ( 0.021204 -0.010811  0.024896)
 21:    319.52   0.007984   40.35  0.007797  (-0.081180  0.017403  0.030072)
 22:    335.49   0.002248   11.36  0.002091  ( 0.023749  0.038718  0.005252)
 23:    351.77   0.017683   89.36  0.015687  (-0.031729  0.062833 -0.103595)
 24:    361.82   0.056887  287.49  0.049064  ( 0.136409 -0.045144  0.168579)
 25:    367.80   0.008722   44.08  0.007400  ( 0.071481 -0.033795 -0.033886)
 26:    375.44   0.005101   25.78  0.004240  ( 0.045757 -0.012314  0.044663)
 27:    392.33   0.011589   58.56  0.009218  ( 0.030501  0.048601  0.076977)
 28:    400.66   0.027564  139.30  0.021469  (-0.106796  0.067728  0.074004)
 29:    409.21   0.008126   41.07  0.006197  (-0.078292 -0.007656 -0.002987)
 30:    418.53   0.010358   52.34  0.007723  ( 0.006748 -0.007355 -0.087310)
 31:    443.18   0.035874  181.29  0.025261  (-0.017446 -0.094905 -0.126291)
 32:    480.41   0.004744   23.97  0.003082  (-0.033725  0.010206  0.042896)
 33:    494.98   0.009814   49.60  0.006187  (-0.061612 -0.016027  0.046200)
 34:    530.45   0.004360   22.03  0.002565  (-0.041071  0.023351 -0.018238)
 35:    569.03   0.005812   29.37  0.003187  (-0.010534 -0.026410  0.048775)
 36:    592.09   0.002599   13.13  0.001370  (-0.001768 -0.007300 -0.036240)
 37:    645.20   0.002426   12.26  0.001173  ( 0.011093 -0.031826 -0.006099)
 38:    746.36   0.024218  122.39  0.010126  (-0.064024 -0.021806 -0.074507)
 39:    819.57   0.026405  133.44  0.010054  ( 0.069230  0.058507  0.042873)
 40:    859.92   0.045639  230.64  0.016562  ( 0.075215 -0.050942 -0.091158)
 41:    885.82   0.079826  403.41  0.028121  (-0.162961  0.039313 -0.004427)
 42:    906.41   0.004665   23.58  0.001606  ( 0.017917  0.032811 -0.014445)
 43:    913.21   0.046612  235.56  0.015928  ( 0.026606  0.117859 -0.036464)
 44:    984.14   0.014955   75.57  0.004742  (-0.031984 -0.056019  0.024102)
 45:   1002.50   0.006878   34.76  0.002141  (-0.003900  0.045874  0.004618)
 46:   1033.72   0.004360   22.04  0.001316  (-0.020265 -0.018922 -0.023401)
 47:   1056.00   0.006167   31.16  0.001822  ( 0.017710 -0.034041 -0.018707)
 48:   1067.66   0.010045   50.76  0.002936  (-0.047776  0.018303 -0.017848)
 49:   1091.03   0.005088   25.71  0.001455  (-0.038077  0.002287  0.000281)
 50:   1102.78   0.037686  190.45  0.010664  (-0.091467 -0.028088  0.038847)
 51:   1107.39   0.043964  222.18  0.012389  ( 0.040021 -0.081026  0.064979)
 52:   1110.74   0.006514   32.92  0.001830  (-0.042096 -0.006745  0.003538)
 53:   1125.93   0.018198   91.96  0.005044  (-0.054870 -0.042323  0.015547)
 54:   1133.63   0.023186  117.17  0.006383  ( 0.077253  0.015956 -0.012650)
 55:   1141.09   0.014477   73.16  0.003959  (-0.051271  0.029642  0.021252)
 56:   1148.88   0.002679   13.54  0.000728  ( 0.003632  0.000954 -0.026712)
 57:   1193.30   0.002971   15.02  0.000777  ( 0.007097  0.014923  0.022450)
 58:   1202.83   0.005870   29.66  0.001523  ( 0.026740  0.010313 -0.026485)
 59:   1227.13   0.008235   41.62  0.002094  (-0.017183 -0.030701 -0.029266)
 60:   1244.33   0.001128    5.70  0.000283  ( 0.012914 -0.008241 -0.006943)
 61:   1254.15   0.010385   52.48  0.002584  ( 0.035734 -0.034360 -0.011243)
 62:   1263.21   0.033913  171.38  0.008378  (-0.017204  0.074365 -0.050515)
 63:   1272.13   0.043204  218.34  0.010598  (-0.005398 -0.071403  0.073965)
 64:   1276.12   0.019731   99.71  0.004825  ( 0.008715  0.023137 -0.064914)
 65:   1280.82   0.023845  120.50  0.005810  ( 0.020545  0.038977 -0.062196)
 66:   1307.29   0.008992   45.44  0.002146  (-0.019075 -0.038562 -0.017190)
 67:   1314.99   0.003390   17.13  0.000804  (-0.026640 -0.008481 -0.004768)
 68:   1325.37   0.000981    4.96  0.000231  (-0.006616  0.001749 -0.013571)
 69:   1332.92   0.009628   48.66  0.002254  (-0.039848 -0.008801  0.024267)
 70:   1338.06   0.003346   16.91  0.000780  ( 0.024583  0.012856  0.003263)
 71:   1343.60   0.007278   36.78  0.001690  ( 0.029242  0.005101 -0.028449)
 72:   1368.51   0.002148   10.86  0.000490  (-0.014803  0.016273 -0.002431)
 73:   1451.79   0.000838    4.24  0.000180  (-0.003327  0.008454  0.009879)
 74:   2837.03   0.001892    9.56  0.000208  (-0.000565 -0.010052 -0.010331)
 75:   2850.29   0.000400    2.02  0.000044  (-0.000537 -0.003693 -0.005463)
 76:   2852.82   0.007614   38.48  0.000833  (-0.002224 -0.021717 -0.018876)
 77:   2861.10   0.018007   91.00  0.001964  (-0.002743 -0.032215 -0.030310)
 78:   2880.13   0.024582  124.23  0.002663  ( 0.002226  0.030032  0.041911)
 79:   2951.98   0.002861   14.46  0.000302  ( 0.001892  0.012402 -0.012043)
 80:   2969.92   0.007356   37.17  0.000773  ( 0.000684  0.015264  0.023227)
 81:   3498.36   0.002215   11.19  0.000198  ( 0.005017 -0.012164  0.004943)
 82:   3505.27   0.017413   88.00  0.001550  ( 0.027158 -0.020427  0.019885)
 83:   3522.82   0.002010   10.16  0.000178  ( 0.006909  0.011332 -0.001387)
 84:   3524.99   0.009505   48.03  0.000841  (-0.003571 -0.025737 -0.012895)
 85:   3622.12   0.016511   83.44  0.001422  ( 0.003843  0.026916  0.026140)
 86:   3627.77   0.014684   74.21  0.001263  (-0.031309  0.008900 -0.014271)

--------------------------
THERMOCHEMISTRY AT 298.15K
--------------------------

Temperature         ... 298.15 K
Pressure            ... 1.00 atm
Total Mass          ... 260.13 AMU

Throughout the following assumptions are being made:
  (1) The electronic state is orbitally nondegenerate
  (2) There are no thermally accessible electronically excited states
  (3) Hindered rotations indicated by low frequency modes are not
      treated as such but are treated as vibrations and this may
      cause some error
  (4) All equations used are the standard statistical mechanics
      equations for an ideal gas
  (5) All vibrations are strictly harmonic

freq.      21.48  E(vib)   ...       0.56
freq.      30.38  E(vib)   ...       0.55
freq.      43.16  E(vib)   ...       0.53
freq.      67.87  E(vib)   ...       0.50
freq.      76.51  E(vib)   ...       0.49
freq.     139.04  E(vib)   ...       0.42
freq.     148.29  E(vib)   ...       0.41
freq.     186.06  E(vib)   ...       0.37
freq.     216.48  E(vib)   ...       0.34
freq.     225.76  E(vib)   ...       0.33
freq.     234.01  E(vib)   ...       0.32
freq.     237.50  E(vib)   ...       0.32
freq.     251.08  E(vib)   ...       0.30
freq.     267.41  E(vib)   ...       0.29
freq.     284.50  E(vib)   ...       0.28
freq.     319.52  E(vib)   ...       0.25
freq.     335.49  E(vib)   ...       0.24
freq.     351.77  E(vib)   ...       0.23
freq.     361.82  E(vib)   ...       0.22
freq.     367.80  E(vib)   ...       0.21
freq.     375.44  E(vib)   ...       0.21
freq.     392.33  E(vib)   ...       0.20
freq.     400.66  E(vib)   ...       0.19
freq.     409.21  E(vib)   ...       0.19
freq.     418.53  E(vib)   ...       0.18
freq.     443.18  E(vib)   ...       0.17
freq.     480.41  E(vib)   ...       0.15
freq.     494.98  E(vib)   ...       0.14
freq.     530.45  E(vib)   ...       0.13
freq.     569.03  E(vib)   ...       0.11
freq.     592.09  E(vib)   ...       0.10
freq.     645.20  E(vib)   ...       0.09
freq.     746.36  E(vib)   ...       0.06
freq.     819.57  E(vib)   ...       0.05
freq.     859.92  E(vib)   ...       0.04
freq.     885.82  E(vib)   ...       0.04
freq.     906.41  E(vib)   ...       0.03
freq.     913.21  E(vib)   ...       0.03
freq.     984.14  E(vib)   ...       0.02
freq.    1002.50  E(vib)   ...       0.02
freq.    1033.72  E(vib)   ...       0.02
freq.    1056.00  E(vib)   ...       0.02
freq.    1067.66  E(vib)   ...       0.02
freq.    1091.03  E(vib)   ...       0.02
freq.    1102.78  E(vib)   ...       0.02
freq.    1107.39  E(vib)   ...       0.02
freq.    1110.74  E(vib)   ...       0.02
freq.    1125.93  E(vib)   ...       0.01
freq.    1133.63  E(vib)   ...       0.01
freq.    1141.09  E(vib)   ...       0.01
freq.    1148.88  E(vib)   ...       0.01
freq.    1193.30  E(vib)   ...       0.01
freq.    1202.83  E(vib)   ...       0.01
freq.    1227.13  E(vib)   ...       0.01
freq.    1244.33  E(vib)   ...       0.01
freq.    1254.15  E(vib)   ...       0.01
freq.    1263.21  E(vib)   ...       0.01
freq.    1272.13  E(vib)   ...       0.01
freq.    1276.12  E(vib)   ...       0.01
freq.    1280.82  E(vib)   ...       0.01
freq.    1307.29  E(vib)   ...       0.01
freq.    1314.99  E(vib)   ...       0.01
freq.    1325.37  E(vib)   ...       0.01
freq.    1332.92  E(vib)   ...       0.01
freq.    1338.06  E(vib)   ...       0.01
freq.    1343.60  E(vib)   ...       0.01
freq.    1368.51  E(vib)   ...       0.01
freq.    1451.79  E(vib)   ...       0.00
freq.    2837.03  E(vib)   ...       0.00
freq.    2850.29  E(vib)   ...       0.00
freq.    2852.82  E(vib)   ...       0.00
freq.    2861.10  E(vib)   ...       0.00
freq.    2880.13  E(vib)   ...       0.00
freq.    2951.98  E(vib)   ...       0.00
freq.    2969.92  E(vib)   ...       0.00
freq.    3498.36  E(vib)   ...       0.00
freq.    3505.27  E(vib)   ...       0.00
freq.    3522.82  E(vib)   ...       0.00
freq.    3524.99  E(vib)   ...       0.00
freq.    3622.12  E(vib)   ...       0.00
freq.    3627.77  E(vib)   ...       0.00

------------
INNER ENERGY
------------

The inner energy is: U= E(el) + E(ZPE) + E(vib) + E(rot) + E(trans)
    E(el)   - is the total energy from the electronic structure calculation
              = E(kin-el) + E(nuc-el) + E(el-el) + E(nuc-nuc)
    E(ZPE)  - the the zero temperature vibrational energy from the frequency calculation
    E(vib)  - the the finite temperature correction to E(ZPE) due to population
              of excited vibrational states
    E(rot)  - is the rotational thermal energy
    E(trans)- is the translational thermal energy

Summary of contributions to the inner energy U:
Electronic energy                ...    -58.74808611 Eh
Zero point energy                ...      0.21108443 Eh     132.46 kcal/mol
Thermal vibrational correction   ...      0.01528830 Eh       9.59 kcal/mol
Thermal rotational correction    ...      0.00141627 Eh       0.89 kcal/mol
Thermal translational correction ...      0.00141627 Eh       0.89 kcal/mol
-----------------------------------------------------------------------
Total thermal energy                    -58.51888084 Eh

Summary of corrections to the electronic energy:
(perhaps to be used in another calculation)
Total thermal correction                  0.01812085 Eh      11.37 kcal/mol
Non-thermal (ZPE) correction              0.21108443 Eh     132.46 kcal/mol
-----------------------------------------------------------------------
Total correction                          0.22920527 Eh     143.83 kcal/mol

--------
ENTHALPY
--------

The enthalpy is H = U + kB*T
                kB is Boltzmann's constant
Total free energy                 ...    -58.51888084 Eh
Thermal Enthalpy correction       ...      0.00094421 Eh       0.59 kcal/mol
-----------------------------------------------------------------------
Total Enthalpy                    ...    -58.51793663 Eh

Note: Only C1 symmetry has been detected, increase convergence thresholds
      if your molecule has a higher symmetry. Symmetry factor of 1.0 is
      used for the rotational entropy correction.

Note: Rotational entropy computed according to Herzberg
Infrared and Raman Spectra, Chapter V,1, Van Nostrand Reinhold, 1945
Point Group:  C1, Symmetry Number:   1
Rotational constants in cm-1:     0.031022     0.008618     0.007468

Vibrational entropy computed according to the QRRHO of S. Grimme
Chem.Eur.J. 2012 18 9955

-------
ENTROPY
-------

The entropy contributions are T*S = T*(S(el)+S(vib)+S(rot)+S(trans))

                             ****ORCA TERMINATED NORMALLY****
TOTAL RUN TIME: 0 days 0 hours 7 minutes 5 seconds 598 msec
