                         Program Version 5.0.3 -  RELEASE  -
|  1> ! XTB2 opt numfreq
|  2> * XYZ 0 1
|  3> O -2.1313 3.0967 -0.3981
|  4> C -1.8113 1.9602 -0.0570
|  5> O -0.9785 1.7831 0.9990
|  6> C -0.1654 0.6015 1.1750
|  7> C 1.2275 0.8606 0.5883
|  8> O 2.1001 -0.2088 0.9146
|  9> P 2.9448 -0.9308 -0.2324
| 10> O 3.9243 -1.9563 0.2139
| 11> O 3.6007 0.2439 -1.0827
| 12> O 1.8508 -1.5283 -1.2387
| 13> C -0.8419 -0.6744 0.6638
| 14> O -1.9144 -1.0272 1.5576
| 15> C -1.4349 -0.4534 -0.7301
| 16> O -0.4358 -0.2167 -1.7172
| 17> C -2.4228 0.7130 -0.6937
| 18> O -3.6288 0.3315 -0.0252
| 19> H -0.0484 0.4932 2.2610
| 20> H 1.1929 1.0505 -0.4876
| 21> H 1.6416 1.7735 1.0321
| 22> H 4.4811 0.4859 -0.7380
| 23> H 2.2939 -2.1657 -1.8351
| 24> H -0.1403 -1.5145 0.6539
| 25> H -1.5129 -1.3186 2.3987
| 26> H -1.9802 -1.3582 -1.0262
| 27> H 0.2407 -0.9255 -1.6589
| 28> H -2.6878 0.9840 -1.7226
| 29> H -3.3638 -0.0991 0.8150
| 30> *
| 31>
| 32>                          ****END OF INPUT****
FINAL SINGLE POINT ENERGY       -57.711905436170
FINAL SINGLE POINT ENERGY       -57.717892731160
FINAL SINGLE POINT ENERGY       -57.720951727840
FINAL SINGLE POINT ENERGY       -57.722686429270
FINAL SINGLE POINT ENERGY       -57.723031643930
FINAL SINGLE POINT ENERGY       -57.723161543730
FINAL SINGLE POINT ENERGY       -57.723225534870
FINAL SINGLE POINT ENERGY       -57.723264805400
FINAL SINGLE POINT ENERGY       -57.723290700910
FINAL SINGLE POINT ENERGY       -57.723315476520
FINAL SINGLE POINT ENERGY       -57.723325494170
FINAL SINGLE POINT ENERGY       -57.723329703160
                    ***********************HURRAY********************

CARTESIAN COORDINATES (ANGSTROEM)
---------------------------------
  O    -2.329093    3.060061   -0.089388
  C    -1.886880    1.960364    0.069067
  O    -0.940901    1.782971    1.013312
  C    -0.156213    0.612283    1.152958
  C     1.224602    0.887816    0.529090
  O     2.128525   -0.136865    0.918286
  P     2.996184   -0.928260   -0.144457
  O     3.967945   -1.838039    0.439072
  O     3.599484    0.183019   -1.125185
  O     1.894546   -1.628453   -1.085957
  C    -0.803838   -0.666076    0.605230
  O    -1.828777   -1.135789    1.454128
  C    -1.436872   -0.415288   -0.777288
  O    -0.488793   -0.081941   -1.752735
  C    -2.443173    0.739437   -0.676325
  O    -3.640505    0.337670   -0.065387
  H    -0.009559    0.494904    2.237137
  H     1.145141    0.961135   -0.556487
  H     1.591199    1.838578    0.927188
  H     4.535511    0.286499   -0.961725
  H     2.304237   -2.377243   -1.518773
  H    -0.012225   -1.425005    0.512214
  H    -1.461429   -1.355079    2.318194
  H    -1.996080   -1.322155   -1.060165
  H     0.180710   -0.778587   -1.803553
  H    -2.708427    1.073573   -1.685219
  H    -3.425418   -0.129431    0.756167

FINAL SINGLE POINT ENERGY       -57.723331679660

VIBRATIONAL FREQUENCIES
-----------------------

Scaling factor for frequencies =  1.000000000 (already applied!)

   0:         0.00 cm**-1
   1:         0.00 cm**-1
   2:         0.00 cm**-1
   3:         0.00 cm**-1
   4:         0.00 cm**-1
   5:         0.00 cm**-1
   6:        24.22 cm**-1
   7:        42.76 cm**-1
   8:        59.33 cm**-1
   9:        71.19 cm**-1
  10:        93.37 cm**-1
  11:       133.11 cm**-1
  12:       152.47 cm**-1
  13:       172.78 cm**-1
  14:       202.67 cm**-1
  15:       215.87 cm**-1
  16:       241.25 cm**-1
  17:       245.84 cm**-1
  18:       267.46 cm**-1
  19:       280.55 cm**-1
  20:       305.64 cm**-1
  21:       310.85 cm**-1
  22:       340.47 cm**-1
  23:       353.41 cm**-1
  24:       378.53 cm**-1
  25:       412.21 cm**-1
  26:       432.54 cm**-1
  27:       435.61 cm**-1
  28:       440.47 cm**-1
  29:       469.07 cm**-1
  30:       475.88 cm**-1
  31:       495.17 cm**-1
  32:       533.69 cm**-1
  33:       567.42 cm**-1
  34:       589.79 cm**-1
  35:       706.53 cm**-1
  36:       756.81 cm**-1
  37:       771.89 cm**-1
  38:       815.82 cm**-1
  39:       822.23 cm**-1
  40:       846.05 cm**-1
  41:       867.28 cm**-1
  42:       881.62 cm**-1
  43:       928.22 cm**-1
  44:       935.75 cm**-1
  45:      1003.15 cm**-1
  46:      1056.95 cm**-1
  47:      1071.38 cm**-1
  48:      1083.18 cm**-1
  49:      1087.72 cm**-1
  50:      1105.19 cm**-1
  51:      1115.11 cm**-1
  52:      1121.69 cm**-1
  53:      1132.13 cm**-1
  54:      1179.14 cm**-1
  55:      1190.06 cm**-1
  56:      1202.95 cm**-1
  57:      1226.21 cm**-1
  58:      1258.13 cm**-1
  59:      1271.99 cm**-1
  60:      1288.69 cm**-1
  61:      1301.75 cm**-1
  62:      1305.12 cm**-1
  63:      1319.29 cm**-1
  64:      1324.85 cm**-1
  65:      1328.34 cm**-1
  66:      1350.02 cm**-1
  67:      1361.03 cm**-1
  68:      1452.48 cm**-1
  69:      1783.92 cm**-1
  70:      2857.39 cm**-1
  71:      2882.60 cm**-1
  72:      2886.58 cm**-1
  73:      2952.04 cm**-1
  74:      2961.54 cm**-1
  75:      2984.82 cm**-1
  76:      3448.50 cm**-1
  77:      3471.40 cm**-1
  78:      3531.54 cm**-1
  79:      3613.64 cm**-1
  80:      3630.85 cm**-1

IR SPECTRUM
-----------

 Mode   freq       eps      Int      T**2         TX        TY        TZ
       cm**-1   L/(mol*cm) km/mol    a.u.
----------------------------------------------------------------------------
  6:     24.22   0.001151    5.82  0.014826  (-0.098376 -0.057440  0.043003)
  7:     42.76   0.000834    4.21  0.006086  (-0.068291 -0.025245  0.028023)
  8:     59.33   0.000145    0.73  0.000764  ( 0.014612 -0.018257 -0.014739)
  9:     71.19   0.001739    8.79  0.007623  (-0.051321 -0.033298 -0.062294)
 10:     93.37   0.000895    4.52  0.002991  (-0.005569  0.043146  0.033137)
 11:    133.11   0.000233    1.18  0.000545  (-0.007760 -0.014185  0.016846)
 12:    152.47   0.001355    6.85  0.002772  ( 0.052550  0.000014 -0.003286)
 13:    172.78   0.011023   55.71  0.019910  ( 0.015041  0.138903  0.019736)
 14:    202.67   0.000431    2.18  0.000663  ( 0.001496  0.025329 -0.004428)
 15:    215.87   0.000523    2.64  0.000756  ( 0.013276 -0.018062 -0.015909)
 16:    241.25   0.003010   15.21  0.003894  (-0.025418 -0.026914  0.050231)
 17:    245.84   0.015923   80.47  0.020212  (-0.006353 -0.002612 -0.142003)
 18:    267.46   0.001763    8.91  0.002058  (-0.031844 -0.024462  0.021097)
 19:    280.55   0.006567   33.19  0.007305  (-0.024222  0.044931  0.068551)
 20:    305.64   0.004634   23.42  0.004731  (-0.018342  0.063880 -0.017728)
 21:    310.85   0.012611   63.73  0.012660  ( 0.012771 -0.111565  0.007062)
 22:    340.47   0.002880   14.56  0.002640  (-0.016051 -0.041066  0.026381)
 23:    353.41   0.002121   10.72  0.001873  ( 0.028564 -0.001250 -0.032490)
 24:    378.53   0.008488   42.89  0.006997  (-0.038550 -0.011309 -0.073372)
 25:    412.21   0.022651  114.47  0.017148  (-0.117645 -0.047533  0.032381)
 26:    432.54   0.005666   28.63  0.004088  (-0.001175  0.040491 -0.049468)
 27:    435.61   0.007337   37.08  0.005256  ( 0.008580 -0.071095  0.011307)
 28:    440.47   0.025571  129.22  0.018116  ( 0.019980  0.068624  0.114052)
 29:    469.07   0.042354  214.04  0.028177  (-0.011358  0.136272  0.097356)
 30:    475.88   0.016513   83.45  0.010828  ( 0.021645  0.085651  0.054990)
 31:    495.17   0.020571  103.96  0.012964  ( 0.029431  0.101063  0.043403)
 32:    533.69   0.006808   34.41  0.003981  (-0.000387 -0.062009  0.011651)
 33:    567.42   0.001451    7.34  0.000798  ( 0.010063  0.026338 -0.001819)
 34:    589.79   0.010358   52.34  0.005480  ( 0.007002  0.040861  0.061333)
 35:    706.53   0.001030    5.21  0.000455  (-0.007797 -0.017386  0.009591)
 36:    756.81   0.006130   30.98  0.002528  (-0.046847 -0.015214 -0.010082)
 37:    771.89   0.004085   20.64  0.001652  (-0.016662 -0.022001 -0.029831)
 38:    815.82   0.054793  276.90  0.020959  ( 0.067283  0.124063  0.032253)
 39:    822.23   0.035677  180.30  0.013541  ( 0.069729  0.000826 -0.093155)
 40:    846.05   0.008278   41.83  0.003053  ( 0.011655 -0.024465 -0.048155)
 41:    867.28   0.000219    1.11  0.000079  (-0.007633 -0.004044  0.002045)
 42:    881.62   0.058418  295.22  0.020678  ( 0.091362  0.045238 -0.101412)
 43:    928.22   0.029352  148.33  0.009868  (-0.082901  0.013281 -0.053094)
 44:    935.75   0.018905   95.54  0.006305  ( 0.060209  0.029341  0.042645)
 45:   1003.15   0.008716   44.05  0.002711  (-0.043681 -0.025772 -0.011796)
 46:   1056.95   0.004084   20.64  0.001206  ( 0.023806  0.025057 -0.003349)
 47:   1071.38   0.035516  179.49  0.010345  (-0.093250  0.030847  0.026418)
 48:   1083.18   0.018929   95.66  0.005453  ( 0.063084 -0.034286  0.017271)
 49:   1087.72   0.012362   62.47  0.003547  ( 0.032714 -0.048879 -0.009349)
 50:   1105.19   0.043531  219.99  0.012291  (-0.091345 -0.032177  0.053964)
 51:   1115.11   0.005011   25.32  0.001402  (-0.013752 -0.025849 -0.023346)
 52:   1121.69   0.004398   22.22  0.001224  (-0.013031 -0.000809  0.032451)
 53:   1132.13   0.040151  202.91  0.011067  ( 0.057703 -0.051644  0.071209)
 54:   1179.14   0.014450   73.03  0.003824  (-0.049131 -0.004436 -0.037294)
 55:   1190.06   0.002530   12.79  0.000664  (-0.002651 -0.023399 -0.010440)
 56:   1202.95   0.011440   57.81  0.002968  (-0.050119 -0.002526 -0.021199)
 57:   1226.21   0.021766  110.00  0.005539  (-0.073912 -0.006968 -0.005261)
 58:   1258.13   0.021919  110.77  0.005437  (-0.002033  0.025447 -0.069175)
 59:   1271.99   0.009883   49.95  0.002425  (-0.047250  0.012038  0.006874)
 60:   1288.69   0.007936   40.11  0.001922  ( 0.028242  0.006181  0.032954)
 61:   1301.75   0.004282   21.64  0.001026  (-0.013996  0.002909 -0.028671)
 62:   1305.12   0.082856  418.72  0.019811  (-0.094389  0.088841 -0.054858)
 63:   1319.29   0.004028   20.36  0.000953  (-0.008185 -0.029688  0.002088)
 64:   1324.85   0.001585    8.01  0.000373  ( 0.017252  0.004121  0.007665)
 65:   1328.34   0.007085   35.81  0.001665  (-0.040528  0.002483 -0.003976)
 66:   1350.02   0.026764  135.26  0.006187  ( 0.070910  0.025944 -0.022030)
 67:   1361.03   0.002323   11.74  0.000533  ( 0.007661 -0.017345  0.013154)
 68:   1452.48   0.002380   12.03  0.000511  (-0.004712 -0.021328  0.005858)
 69:   1783.92   0.093165  470.82  0.016297  ( 0.057579 -0.110858  0.026321)
 70:   2857.39   0.009670   48.87  0.001056  ( 0.015580  0.024061  0.015311)
 71:   2882.60   0.007581   38.31  0.000821  ( 0.020903 -0.018981 -0.004843)
 72:   2886.58   0.005365   27.11  0.000580  ( 0.003342 -0.017930  0.015727)
 73:   2952.04   0.005779   29.21  0.000611  (-0.001179 -0.024521  0.002868)
 74:   2961.54   0.004468   22.58  0.000471  ( 0.001377 -0.014551  0.016036)
 75:   2984.82   0.003024   15.28  0.000316  ( 0.001262 -0.017559  0.002494)
 76:   3448.50   0.013738   69.43  0.001243  ( 0.011166 -0.014915  0.029935)
 77:   3471.40   0.022882  115.64  0.002057  (-0.039215  0.022377 -0.004299)
 78:   3531.54   0.002688   13.58  0.000238  (-0.012806 -0.003704 -0.007735)
 79:   3613.64   0.013197   66.69  0.001140  ( 0.014757 -0.028944 -0.009173)
 80:   3630.85   0.013482   68.13  0.001159  (-0.033500  0.000244  0.006034)

--------------------------
THERMOCHEMISTRY AT 298.15K
--------------------------

Temperature         ... 298.15 K
Pressure            ... 1.00 atm
Total Mass          ... 258.12 AMU

Throughout the following assumptions are being made:
  (1) The electronic state is orbitally nondegenerate
  (2) There are no thermally accessible electronically excited states
  (3) Hindered rotations indicated by low frequency modes are not
      treated as such but are treated as vibrations and this may
      cause some error
  (4) All equations used are the standard statistical mechanics
      equations for an ideal gas
  (5) All vibrations are strictly harmonic

freq.      24.22  E(vib)   ...       0.56
freq.      42.76  E(vib)   ...       0.53
freq.      59.33  E(vib)   ...       0.51
freq.      71.19  E(vib)   ...       0.50
freq.      93.37  E(vib)   ...       0.47
freq.     133.11  E(vib)   ...       0.42
freq.     152.47  E(vib)   ...       0.40
freq.     172.78  E(vib)   ...       0.38
freq.     202.67  E(vib)   ...       0.35
freq.     215.87  E(vib)   ...       0.34
freq.     241.25  E(vib)   ...       0.31
freq.     245.84  E(vib)   ...       0.31
freq.     267.46  E(vib)   ...       0.29
freq.     280.55  E(vib)   ...       0.28
freq.     305.64  E(vib)   ...       0.26
freq.     310.85  E(vib)   ...       0.26
freq.     340.47  E(vib)   ...       0.23
freq.     353.41  E(vib)   ...       0.22
freq.     378.53  E(vib)   ...       0.21
freq.     412.21  E(vib)   ...       0.19
freq.     432.54  E(vib)   ...       0.18
freq.     435.61  E(vib)   ...       0.17
freq.     440.47  E(vib)   ...       0.17
freq.     469.07  E(vib)   ...       0.16
freq.     475.88  E(vib)   ...       0.15
freq.     495.17  E(vib)   ...       0.14
freq.     533.69  E(vib)   ...       0.13
freq.     567.42  E(vib)   ...       0.11
freq.     589.79  E(vib)   ...       0.10
freq.     706.53  E(vib)   ...       0.07
freq.     756.81  E(vib)   ...       0.06
freq.     771.89  E(vib)   ...       0.05
freq.     815.82  E(vib)   ...       0.05
freq.     822.23  E(vib)   ...       0.05
freq.     846.05  E(vib)   ...       0.04
freq.     867.28  E(vib)   ...       0.04
freq.     881.62  E(vib)   ...       0.04
freq.     928.22  E(vib)   ...       0.03
freq.     935.75  E(vib)   ...       0.03
freq.    1003.15  E(vib)   ...       0.02
freq.    1056.95  E(vib)   ...       0.02
freq.    1071.38  E(vib)   ...       0.02
freq.    1083.18  E(vib)   ...       0.02
freq.    1087.72  E(vib)   ...       0.02
freq.    1105.19  E(vib)   ...       0.02
freq.    1115.11  E(vib)   ...       0.01
freq.    1121.69  E(vib)   ...       0.01
freq.    1132.13  E(vib)   ...       0.01
freq.    1179.14  E(vib)   ...       0.01
freq.    1190.06  E(vib)   ...       0.01
freq.    1202.95  E(vib)   ...       0.01
freq.    1226.21  E(vib)   ...       0.01
freq.    1258.13  E(vib)   ...       0.01
freq.    1271.99  E(vib)   ...       0.01
freq.    1288.69  E(vib)   ...       0.01
freq.    1301.75  E(vib)   ...       0.01
freq.    1305.12  E(vib)   ...       0.01
freq.    1319.29  E(vib)   ...       0.01
freq.    1324.85  E(vib)   ...       0.01
freq.    1328.34  E(vib)   ...       0.01
freq.    1350.02  E(vib)   ...       0.01
freq.    1361.03  E(vib)   ...       0.01
freq.    1452.48  E(vib)   ...       0.00
freq.    1783.92  E(vib)   ...       0.00
freq.    2857.39  E(vib)   ...       0.00
freq.    2882.60  E(vib)   ...       0.00
freq.    2886.58  E(vib)   ...       0.00
freq.    2952.04  E(vib)   ...       0.00
freq.    2961.54  E(vib)   ...       0.00
freq.    2984.82  E(vib)   ...       0.00
freq.    3448.50  E(vib)   ...       0.00
freq.    3471.40  E(vib)   ...       0.00
freq.    3531.54  E(vib)   ...       0.00
freq.    3613.64  E(vib)   ...       0.00
freq.    3630.85  E(vib)   ...       0.00

------------
INNER ENERGY
------------

The inner energy is: U= E(el) + E(ZPE) + E(vib) + E(rot) + E(trans)
    E(el)   - is the total energy from the electronic structure calculation
              = E(kin-el) + E(nuc-el) + E(el-el) + E(nuc-nuc)
    E(ZPE)  - the the zero temperature vibrational energy from the frequency calculation
    E(vib)  - the the finite temperature correction to E(ZPE) due to population
              of excited vibrational states
    E(rot)  - is the rotational thermal energy
    E(trans)- is the translational thermal energy

Summary of contributions to the inner energy U:
Electronic energy                ...    -57.72333168 Eh
Zero point energy                ...      0.18958268 Eh     118.96 kcal/mol
Thermal vibrational correction   ...      0.01440961 Eh       9.04 kcal/mol
Thermal rotational correction    ...      0.00141627 Eh       0.89 kcal/mol
Thermal translational correction ...      0.00141627 Eh       0.89 kcal/mol
-----------------------------------------------------------------------
Total thermal energy                    -57.51650686 Eh

Summary of corrections to the electronic energy:
(perhaps to be used in another calculation)
Total thermal correction                  0.01724215 Eh      10.82 kcal/mol
Non-thermal (ZPE) correction              0.18958268 Eh     118.96 kcal/mol
-----------------------------------------------------------------------
Total correction                          0.20682483 Eh     129.78 kcal/mol

--------
ENTHALPY
--------

The enthalpy is H = U + kB*T
                kB is Boltzmann's constant
Total free energy                 ...    -57.51650686 Eh
Thermal Enthalpy correction       ...      0.00094421 Eh       0.59 kcal/mol
-----------------------------------------------------------------------
Total Enthalpy                    ...    -57.51556265 Eh

Note: Only C1 symmetry has been detected, increase convergence thresholds
      if your molecule has a higher symmetry. Symmetry factor of 1.0 is
      used for the rotational entropy correction.

Note: Rotational entropy computed according to Herzberg
Infrared and Raman Spectra, Chapter V,1, Van Nostrand Reinhold, 1945
Point Group:  C1, Symmetry Number:   1
Rotational constants in cm-1:     0.033665     0.009329     0.008948

Vibrational entropy computed according to the QRRHO of S. Grimme
Chem.Eur.J. 2012 18 9955

-------
ENTROPY
-------

The entropy contributions are T*S = T*(S(el)+S(vib)+S(rot)+S(trans))
     S(el)   - electronic entropy
     S(vib)  - vibrational entropy
     S(rot)  - rotational entropy
     S(trans)- translational entropy
The entropies will be listed as multiplied by the temperature to get
units of energy

                             ****ORCA TERMINATED NORMALLY****
TOTAL RUN TIME: 0 days 0 hours 6 minutes 36 seconds 135 msec
