                         Program Version 5.0.3 -  RELEASE  -
|  1> ! XTB2 opt numfreq
|  2> * XYZ 0 1
|  3> O -3.0010 1.3845 0.7646
|  4> C -3.2842 0.7283 -0.2447
|  5> C -4.7184 0.6212 -0.7435
|  6> O -5.6486 1.0571 0.2368
|  7> C -2.2156 0.0564 -1.1002
|  8> O -1.9441 0.9155 -2.2099
|  9> C -0.9323 -0.1720 -0.2706
| 10> O -0.3339 1.1150 -0.0188
| 11> C 0.0652 -1.0806 -1.0194
| 12> O -0.5913 -2.3229 -1.3346
| 13> C 1.3437 -1.4356 -0.2339
| 14> O 0.9650 -2.2641 0.8850
| 15> C 2.1666 -0.2489 0.2613
| 16> O 3.3882 -0.7578 0.7873
| 17> P 4.5257 0.2693 1.2384
| 18> O 5.7870 -0.3190 1.7659
| 19> O 3.8429 1.3708 2.1633
| 20> O 4.8296 1.1345 -0.0710
| 21> H -4.9452 -0.4207 -0.9835
| 22> H -4.8321 1.2404 -1.6373
| 23> H -5.2177 1.7857 0.7250
| 24> H -2.6250 -0.8889 -1.4690
| 25> H -1.3028 1.5799 -1.8850
| 26> H -1.1894 -0.6300 0.6926
| 27> H -0.9537 1.5736 0.5926
| 28> H 0.3583 -0.6047 -1.9625
| 29> H -0.4317 -2.9038 -0.5600
| 30> H 1.9714 -2.0796 -0.8628
| 31> H 1.7912 -2.4212 1.3854
| 32> H 1.6596 0.2670 1.0808
| 33> H 2.3775 0.4468 -0.5559
| 34> H 3.3359 2.0208 1.6466
| 35> H 5.7592 0.9829 -0.3347
| 36> *
| 37>
| 38>                          ****END OF INPUT****
FINAL SINGLE POINT ENERGY       -65.927889598430
FINAL SINGLE POINT ENERGY       -65.936401127420
FINAL SINGLE POINT ENERGY       -65.939141306270
FINAL SINGLE POINT ENERGY       -65.939791689010
FINAL SINGLE POINT ENERGY       -65.940113271640
FINAL SINGLE POINT ENERGY       -65.940288263780
FINAL SINGLE POINT ENERGY       -65.940439237230
FINAL SINGLE POINT ENERGY       -65.940522195300
FINAL SINGLE POINT ENERGY       -65.940576772620
FINAL SINGLE POINT ENERGY       -65.940604440710
FINAL SINGLE POINT ENERGY       -65.940613418560
FINAL SINGLE POINT ENERGY       -65.940620539180
FINAL SINGLE POINT ENERGY       -65.940623370420
                    ***********************HURRAY********************

CARTESIAN COORDINATES (ANGSTROEM)
---------------------------------
  O    -3.057170    1.386782    0.742826
  C    -3.301618    0.685402   -0.216770
  C    -4.712215    0.468506   -0.682645
  O    -5.644878    1.126181    0.120042
  C    -2.202694    0.074031   -1.087111
  O    -1.964215    0.991665   -2.128585
  C    -0.919163   -0.132896   -0.252381
  O    -0.370656    1.133954    0.034337
  C     0.092741   -0.976931   -1.054493
  O    -0.514592   -2.159359   -1.497154
  C     1.335642   -1.351545   -0.226579
  O     0.883015   -2.140990    0.852177
  C     2.153413   -0.164957    0.278248
  O     3.301889   -0.712357    0.914606
  P     4.540030    0.233778    1.283150
  O     5.607483   -0.501540    1.931172
  O     3.921092    1.446571    2.103186
  O     4.930434    0.944132   -0.111107
  H    -4.922348   -0.610067   -0.689933
  H    -4.776087    0.824586   -1.721922
  H    -5.149174    1.626227    0.788401
  H    -2.529033   -0.864518   -1.541990
  H    -1.286831    1.610094   -1.808176
  H    -1.168069   -0.674858    0.670627
  H    -1.023888    1.592426    0.590155
  H     0.389874   -0.417621   -1.946632
  H    -0.534763   -2.765380   -0.743068
  H     1.988213   -1.959827   -0.874821
  H     1.636625   -2.286004    1.437008
  H     1.572343    0.412077    1.000837
  H     2.442820    0.479295   -0.555704
  H     3.537438    2.125890    1.548914
  H     5.744343    0.557151   -0.428315

FINAL SINGLE POINT ENERGY       -65.940625183900

VIBRATIONAL FREQUENCIES
-----------------------

Scaling factor for frequencies =  1.000000000 (already applied!)

   0:         0.00 cm**-1
   1:         0.00 cm**-1
   2:         0.00 cm**-1
   3:         0.00 cm**-1
   4:         0.00 cm**-1
   5:         0.00 cm**-1
   6:        13.84 cm**-1
   7:        18.10 cm**-1
   8:        25.40 cm**-1
   9:        35.70 cm**-1
  10:        45.25 cm**-1
  11:        63.69 cm**-1
  12:        87.88 cm**-1
  13:        95.64 cm**-1
  14:       112.50 cm**-1
  15:       124.15 cm**-1
  16:       157.66 cm**-1
  17:       170.78 cm**-1
  18:       182.89 cm**-1
  19:       194.50 cm**-1
  20:       223.67 cm**-1
  21:       235.68 cm**-1
  22:       248.42 cm**-1
  23:       256.74 cm**-1
  24:       283.28 cm**-1
  25:       304.37 cm**-1
  26:       310.39 cm**-1
  27:       322.92 cm**-1
  28:       340.67 cm**-1
  29:       351.65 cm**-1
  30:       386.25 cm**-1
  31:       397.38 cm**-1
  32:       421.78 cm**-1
  33:       423.84 cm**-1
  34:       437.78 cm**-1
  35:       445.39 cm**-1
  36:       473.00 cm**-1
  37:       497.59 cm**-1
  38:       530.24 cm**-1
  39:       548.67 cm**-1
  40:       556.84 cm**-1
  41:       611.68 cm**-1
  42:       703.45 cm**-1
  43:       755.98 cm**-1
  44:       768.46 cm**-1
  45:       805.38 cm**-1
  46:       822.12 cm**-1
  47:       882.47 cm**-1
  48:       886.36 cm**-1
  49:       902.93 cm**-1
  50:       908.11 cm**-1
  51:       924.90 cm**-1
  52:       932.80 cm**-1
  53:       965.80 cm**-1
  54:      1046.96 cm**-1
  55:      1050.01 cm**-1
  56:      1057.35 cm**-1
  57:      1075.15 cm**-1
  58:      1080.90 cm**-1
  59:      1093.88 cm**-1
  60:      1119.64 cm**-1
  61:      1131.48 cm**-1
  62:      1133.37 cm**-1
  63:      1155.03 cm**-1
  64:      1166.12 cm**-1
  65:      1179.00 cm**-1
  66:      1183.63 cm**-1
  67:      1208.04 cm**-1
  68:      1214.27 cm**-1
  69:      1238.86 cm**-1
  70:      1248.91 cm**-1
  71:      1275.10 cm**-1
  72:      1279.46 cm**-1
  73:      1293.21 cm**-1
  74:      1318.95 cm**-1
  75:      1319.97 cm**-1
  76:      1327.43 cm**-1
  77:      1327.99 cm**-1
  78:      1336.56 cm**-1
  79:      1348.08 cm**-1
  80:      1352.07 cm**-1
  81:      1420.25 cm**-1
  82:      1455.34 cm**-1
  83:      1731.91 cm**-1
  84:      2855.62 cm**-1
  85:      2866.38 cm**-1
  86:      2898.37 cm**-1
  87:      2903.12 cm**-1
  88:      2954.25 cm**-1
  89:      2964.33 cm**-1
  90:      2970.31 cm**-1
  91:      2974.07 cm**-1
  92:      3386.16 cm**-1
  93:      3403.03 cm**-1
  94:      3408.93 cm**-1
  95:      3483.96 cm**-1
  96:      3529.81 cm**-1
  97:      3601.18 cm**-1
  98:      3641.53 cm**-1

IR SPECTRUM
-----------

 Mode   freq       eps      Int      T**2         TX        TY        TZ
       cm**-1   L/(mol*cm) km/mol    a.u.
----------------------------------------------------------------------------
  6:     13.84   0.000060    0.30  0.001355  (-0.001920 -0.035595 -0.009189)
  7:     18.10   0.000520    2.63  0.008971  (-0.049702  0.074106  0.031769)
  8:     25.40   0.001091    5.52  0.013407  (-0.070665 -0.058728  0.070461)
  9:     35.70   0.000202    1.02  0.001763  ( 0.008297  0.025945 -0.031947)
 10:     45.25   0.000614    3.10  0.004232  ( 0.035728  0.041367  0.035272)
 11:     63.69   0.000322    1.63  0.001576  ( 0.009936 -0.038324  0.002941)
 12:     87.88   0.002727   13.78  0.009685  (-0.079196 -0.058421  0.000383)
 13:     95.64   0.001978   10.00  0.006454  ( 0.037843 -0.062571  0.033267)
 14:    112.50   0.001855    9.37  0.005146  (-0.024684 -0.036098  0.056864)
 15:    124.15   0.001863    9.42  0.004684  (-0.046657  0.035984 -0.034814)
 16:    157.66   0.004519   22.84  0.008944  ( 0.078431  0.044108 -0.029106)
 17:    170.78   0.002701   13.65  0.004936  ( 0.035401  0.047746 -0.037461)
 18:    182.89   0.011089   56.04  0.018920  ( 0.117073  0.045263 -0.056262)
 19:    194.50   0.001025    5.18  0.001645  (-0.033909  0.012378  0.018501)
 20:    223.67   0.000295    1.49  0.000412  ( 0.018560 -0.003136 -0.007611)
 21:    235.68   0.002333   11.79  0.003090  ( 0.018497  0.015326 -0.050126)
 22:    248.42   0.006831   34.52  0.008581  ( 0.084658  0.010205  0.036189)
 23:    256.74   0.022750  114.97  0.027652  (-0.115839 -0.112704 -0.039130)
 24:    283.28   0.001758    8.88  0.001937  (-0.037457  0.009349 -0.021124)
 25:    304.37   0.007393   37.36  0.007580  ( 0.019237  0.067554 -0.051438)
 26:    310.39   0.019884  100.49  0.019992  ( 0.015631 -0.117689  0.076789)
 27:    322.92   0.004457   22.53  0.004307  ( 0.053726  0.037457 -0.004237)
 28:    340.67   0.002203   11.13  0.002018  (-0.013808 -0.031869  0.028494)
 29:    351.65   0.006728   34.00  0.005970  ( 0.055018 -0.013513 -0.052542)
 30:    386.25   0.002915   14.73  0.002355  (-0.014915  0.038504  0.025494)
 31:    397.38   0.003312   16.74  0.002601  ( 0.024383  0.039909 -0.020343)
 32:    421.78   0.015299   77.31  0.011319  ( 0.098303  0.020689 -0.035037)
 33:    423.84   0.007200   36.39  0.005301  ( 0.011196 -0.013164 -0.070729)
 34:    437.78   0.012241   61.86  0.008726  (-0.044873  0.070435  0.041843)
 35:    445.39   0.023771  120.13  0.016655  (-0.053008 -0.089651 -0.076209)
 36:    473.00   0.071423  360.94  0.047121  (-0.170177  0.106232  0.082919)
 37:    497.59   0.004596   23.23  0.002882  (-0.020389  0.049481 -0.004278)
 38:    530.24   0.018042   91.18  0.010618  ( 0.077500 -0.065984  0.016068)
 39:    548.67   0.001685    8.52  0.000959  (-0.010302 -0.006887  0.028373)
 40:    556.84   0.022896  115.71  0.012832  ( 0.083107 -0.035115  0.068496)
 41:    611.68   0.016746   84.63  0.008543  (-0.018749  0.067931 -0.059810)
 42:    703.45   0.013853   70.01  0.006146  (-0.072106 -0.030526 -0.003810)
 43:    755.98   0.003887   19.64  0.001605  (-0.032792 -0.017066 -0.015428)
 44:    768.46   0.017079   86.31  0.006936  (-0.042897 -0.051682  0.049239)
 45:    805.38   0.022252  112.45  0.008622  ( 0.077153  0.031357 -0.041063)
 46:    822.12   0.036908  186.52  0.014010  ( 0.069155  0.090390  0.032509)
 47:    882.47   0.015785   79.77  0.005582  ( 0.013836  0.063592  0.036696)
 48:    886.36   0.080534  406.99  0.028354  (-0.024410  0.088160  0.141372)
 49:    902.93   0.023905  120.81  0.008262  (-0.013722  0.081413 -0.038019)
 50:    908.11   0.020573  103.97  0.007070  (-0.045950 -0.055914  0.042802)
 51:    924.90   0.000965    4.88  0.000326  (-0.007373 -0.011310  0.011973)
 52:    932.80   0.014629   73.93  0.004894  ( 0.043255  0.026151 -0.048364)
 53:    965.80   0.010131   51.20  0.003273  ( 0.037804  0.042920 -0.001463)
 54:   1046.96   0.009887   49.97  0.002947  ( 0.036994 -0.021945 -0.033120)
 55:   1050.01   0.003412   17.24  0.001014  (-0.017467 -0.003929  0.026333)
 56:   1057.35   0.055747  281.72  0.016453  (-0.116496 -0.013896 -0.051851)
 57:   1075.15   0.006006   30.35  0.001743  (-0.003702 -0.032741  0.025643)
 58:   1080.90   0.013187   66.64  0.003807  (-0.054660  0.026671 -0.010394)
 59:   1093.88   0.011024   55.71  0.003145  ( 0.027700 -0.037970 -0.030594)
 60:   1119.64   0.021122  106.74  0.005887  ( 0.061016  0.038693 -0.025827)
 61:   1131.48   0.006614   33.42  0.001824  (-0.009328 -0.016876  0.038109)
 62:   1133.37   0.012533   63.34  0.003451  ( 0.003178  0.053866  0.023219)
 63:   1155.03   0.007315   36.97  0.001976  (-0.002099 -0.030874  0.031918)
 64:   1166.12   0.002558   12.93  0.000685  (-0.008775  0.024201 -0.004684)
 65:   1179.00   0.000036    0.18  0.000010  ( 0.002715 -0.001452 -0.000412)
 66:   1183.63   0.015247   77.05  0.004020  (-0.012723 -0.033336  0.052409)
 67:   1208.04   0.016625   84.01  0.004294  ( 0.065198 -0.001606 -0.006418)
 68:   1214.27   0.000767    3.88  0.000197  ( 0.011456  0.004053 -0.007033)
 69:   1238.86   0.008674   43.84  0.002185  (-0.023632  0.018068  0.036057)
 70:   1248.91   0.011918   60.23  0.002978  (-0.017040 -0.047977 -0.019639)
 71:   1275.10   0.002121   10.72  0.000519  (-0.011303  0.006577 -0.018659)
 72:   1279.46   0.029193  147.53  0.007120  ( 0.063310  0.055680  0.003438)
 73:   1293.21   0.002590   13.09  0.000625  ( 0.020541 -0.003471  0.013822)
 74:   1318.95   0.076701  387.61  0.018147  (-0.072309  0.065642 -0.092790)
 75:   1319.97   0.021738  109.86  0.005139  ( 0.068000 -0.020372  0.010017)
 76:   1327.43   0.007200   36.39  0.001693  (-0.039854 -0.004585  0.009129)
 77:   1327.99   0.013453   67.99  0.003161  (-0.003331  0.048701  0.027902)
 78:   1336.56   0.010359   52.35  0.002419  ( 0.009956  0.037224  0.030561)
 79:   1348.08   0.005508   27.83  0.001275  (-0.003054  0.012780  0.033202)
 80:   1352.07   0.007288   36.83  0.001682  ( 0.010495  0.015555 -0.036469)
 81:   1420.25   0.001162    5.87  0.000255  (-0.013322  0.001747 -0.008651)
 82:   1455.34   0.002055   10.38  0.000441  ( 0.006912 -0.019809  0.000644)
 83:   1731.91   0.050765  256.55  0.009147  (-0.030984 -0.047053 -0.077286)
 84:   2855.62   0.016411   82.94  0.001793  (-0.016690  0.027875  0.027164)
 85:   2866.38   0.003790   19.15  0.000413  ( 0.001112  0.019923 -0.003806)
 86:   2898.37   0.005669   28.65  0.000610  (-0.000404 -0.020590  0.013648)
 87:   2903.12   0.000972    4.91  0.000104  (-0.002836  0.009706  0.001480)
 88:   2954.25   0.007169   36.23  0.000757  (-0.001253 -0.016609  0.021905)
 89:   2964.33   0.013076   66.08  0.001377  ( 0.003566  0.030288 -0.021130)
 90:   2970.31   0.002522   12.74  0.000265  (-0.011989  0.010422 -0.003547)
 91:   2974.07   0.005444   27.51  0.000571  ( 0.000080 -0.023790 -0.002298)
 92:   3386.16   0.018185   91.90  0.001676  ( 0.034960 -0.010013 -0.018798)
 93:   3403.03   0.024300  122.80  0.002228  (-0.044091 -0.011361 -0.012460)
 94:   3408.93   0.007635   38.58  0.000699  ( 0.019591  0.005955  0.016723)
 95:   3483.96   0.008980   45.38  0.000804  (-0.000714 -0.016115  0.023327)
 96:   3529.81   0.010606   53.60  0.000938  ( 0.023507  0.011263  0.016069)
 97:   3601.18   0.007954   40.20  0.000689  (-0.015596  0.019892 -0.007097)
 98:   3641.53   0.018049   91.21  0.001547  ( 0.035845 -0.000258 -0.016182)

--------------------------
THERMOCHEMISTRY AT 298.15K
--------------------------

Temperature         ... 298.15 K
Pressure            ... 1.00 atm
Total Mass          ... 290.16 AMU

Throughout the following assumptions are being made:
  (1) The electronic state is orbitally nondegenerate
  (2) There are no thermally accessible electronically excited states
  (3) Hindered rotations indicated by low frequency modes are not
      treated as such but are treated as vibrations and this may
      cause some error
  (4) All equations used are the standard statistical mechanics
      equations for an ideal gas
  (5) All vibrations are strictly harmonic

freq.      13.84  E(vib)   ...       0.57
freq.      18.10  E(vib)   ...       0.57
freq.      25.40  E(vib)   ...       0.56
freq.      35.70  E(vib)   ...       0.54
freq.      45.25  E(vib)   ...       0.53
freq.      63.69  E(vib)   ...       0.51
freq.      87.88  E(vib)   ...       0.48
freq.      95.64  E(vib)   ...       0.47
freq.     112.50  E(vib)   ...       0.45
freq.     124.15  E(vib)   ...       0.43
freq.     157.66  E(vib)   ...       0.40
freq.     170.78  E(vib)   ...       0.38
freq.     182.89  E(vib)   ...       0.37
freq.     194.50  E(vib)   ...       0.36
freq.     223.67  E(vib)   ...       0.33
freq.     235.68  E(vib)   ...       0.32
freq.     248.42  E(vib)   ...       0.31
freq.     256.74  E(vib)   ...       0.30
freq.     283.28  E(vib)   ...       0.28
freq.     304.37  E(vib)   ...       0.26
freq.     310.39  E(vib)   ...       0.26
freq.     322.92  E(vib)   ...       0.25
freq.     340.67  E(vib)   ...       0.23
freq.     351.65  E(vib)   ...       0.23
freq.     386.25  E(vib)   ...       0.20
freq.     397.38  E(vib)   ...       0.20
freq.     421.78  E(vib)   ...       0.18
freq.     423.84  E(vib)   ...       0.18
freq.     437.78  E(vib)   ...       0.17
freq.     445.39  E(vib)   ...       0.17
freq.     473.00  E(vib)   ...       0.15
freq.     497.59  E(vib)   ...       0.14
freq.     530.24  E(vib)   ...       0.13
freq.     548.67  E(vib)   ...       0.12
freq.     556.84  E(vib)   ...       0.12
freq.     611.68  E(vib)   ...       0.10
freq.     703.45  E(vib)   ...       0.07
freq.     755.98  E(vib)   ...       0.06
freq.     768.46  E(vib)   ...       0.06
freq.     805.38  E(vib)   ...       0.05
freq.     822.12  E(vib)   ...       0.05
freq.     882.47  E(vib)   ...       0.04
freq.     886.36  E(vib)   ...       0.04
freq.     902.93  E(vib)   ...       0.03
freq.     908.11  E(vib)   ...       0.03
freq.     924.90  E(vib)   ...       0.03
freq.     932.80  E(vib)   ...       0.03
freq.     965.80  E(vib)   ...       0.03
freq.    1046.96  E(vib)   ...       0.02
freq.    1050.01  E(vib)   ...       0.02
freq.    1057.35  E(vib)   ...       0.02
freq.    1075.15  E(vib)   ...       0.02
freq.    1080.90  E(vib)   ...       0.02
freq.    1093.88  E(vib)   ...       0.02
freq.    1119.64  E(vib)   ...       0.01
freq.    1131.48  E(vib)   ...       0.01
freq.    1133.37  E(vib)   ...       0.01
freq.    1155.03  E(vib)   ...       0.01
freq.    1166.12  E(vib)   ...       0.01
freq.    1179.00  E(vib)   ...       0.01
freq.    1183.63  E(vib)   ...       0.01
freq.    1208.04  E(vib)   ...       0.01
freq.    1214.27  E(vib)   ...       0.01
freq.    1238.86  E(vib)   ...       0.01
freq.    1248.91  E(vib)   ...       0.01
freq.    1275.10  E(vib)   ...       0.01
freq.    1279.46  E(vib)   ...       0.01
freq.    1293.21  E(vib)   ...       0.01
freq.    1318.95  E(vib)   ...       0.01
freq.    1319.97  E(vib)   ...       0.01
freq.    1327.43  E(vib)   ...       0.01
freq.    1327.99  E(vib)   ...       0.01
freq.    1336.56  E(vib)   ...       0.01
freq.    1348.08  E(vib)   ...       0.01
freq.    1352.07  E(vib)   ...       0.01
freq.    1420.25  E(vib)   ...       0.00
freq.    1455.34  E(vib)   ...       0.00
freq.    1731.91  E(vib)   ...       0.00
freq.    2855.62  E(vib)   ...       0.00
freq.    2866.38  E(vib)   ...       0.00
freq.    2898.37  E(vib)   ...       0.00
freq.    2903.12  E(vib)   ...       0.00
freq.    2954.25  E(vib)   ...       0.00
freq.    2964.33  E(vib)   ...       0.00
freq.    2970.31  E(vib)   ...       0.00
freq.    2974.07  E(vib)   ...       0.00
freq.    3386.16  E(vib)   ...       0.00
freq.    3403.03  E(vib)   ...       0.00
freq.    3408.93  E(vib)   ...       0.00
freq.    3483.96  E(vib)   ...       0.00
freq.    3529.81  E(vib)   ...       0.00
freq.    3601.18  E(vib)   ...       0.00
freq.    3641.53  E(vib)   ...       0.00

------------
INNER ENERGY
------------

The inner energy is: U= E(el) + E(ZPE) + E(vib) + E(rot) + E(trans)
    E(el)   - is the total energy from the electronic structure calculation
              = E(kin-el) + E(nuc-el) + E(el-el) + E(nuc-nuc)
    E(ZPE)  - the the zero temperature vibrational energy from the frequency calculation
    E(vib)  - the the finite temperature correction to E(ZPE) due to population
              of excited vibrational states
    E(rot)  - is the rotational thermal energy
    E(trans)- is the translational thermal energy

Summary of contributions to the inner energy U:
Electronic energy                ...    -65.94062518 Eh
Zero point energy                ...      0.23967446 Eh     150.40 kcal/mol
Thermal vibrational correction   ...      0.01915015 Eh      12.02 kcal/mol
Thermal rotational correction    ...      0.00141627 Eh       0.89 kcal/mol
Thermal translational correction ...      0.00141627 Eh       0.89 kcal/mol
-----------------------------------------------------------------------
Total thermal energy                    -65.67896803 Eh

Summary of corrections to the electronic energy:
(perhaps to be used in another calculation)
Total thermal correction                  0.02198270 Eh      13.79 kcal/mol
Non-thermal (ZPE) correction              0.23967446 Eh     150.40 kcal/mol
-----------------------------------------------------------------------
Total correction                          0.26165716 Eh     164.19 kcal/mol

--------
ENTHALPY
--------

The enthalpy is H = U + kB*T
                kB is Boltzmann's constant
Total free energy                 ...    -65.67896803 Eh
Thermal Enthalpy correction       ...      0.00094421 Eh       0.59 kcal/mol
-----------------------------------------------------------------------
Total Enthalpy                    ...    -65.67802382 Eh

Note: Only C1 symmetry has been detected, increase convergence thresholds
      if your molecule has a higher symmetry. Symmetry factor of 1.0 is
      used for the rotational entropy correction.

Note: Rotational entropy computed according to Herzberg
Infrared and Raman Spectra, Chapter V,1, Van Nostrand Reinhold, 1945

Rotational constants in cm-1:     0.028094     0.004642     0.004383

                             ****ORCA TERMINATED NORMALLY****
TOTAL RUN TIME: 0 days 0 hours 8 minutes 7 seconds 546 msec
