                         Program Version 5.0.3 -  RELEASE  -
|  1> ! XTB2 opt numfreq
|  2> * XYZ 0 1
|  3> O 0.3351 0.7734 2.5885
|  4> C 1.1122 0.5087 1.6764
|  5> O 2.4333 0.3106 1.9579
|  6> C 3.2976 -0.2227 0.9347
|  7> C 4.7220 -0.2653 1.5126
|  8> O 5.5437 -1.1771 0.8060
|  9> P 6.6918 -0.6024 -0.1445
| 10> O 6.2730 0.3529 -1.2099
| 11> O 7.3944 -1.9220 -0.6949
| 12> O 7.7945 -0.0299 0.8550
| 13> C 3.2163 0.6268 -0.3428
| 14> O 3.6895 -0.1302 -1.4646
| 15> C 1.7795 1.1217 -0.6161
| 16> O 1.7531 2.5335 -0.3293
| 17> C 0.7180 0.3378 0.1932
| 18> O 0.7684 -1.0783 -0.1132
| 19> C -0.7539 0.8323 -0.0750
| 20> O -0.8581 2.2122 0.2983
| 21> O -1.5961 -0.0237 0.7108
| 22> C -3.0009 0.2603 0.6953
| 23> C -3.7350 -1.0523 0.9924
| 24> O -5.1325 -0.8279 1.0978
| 25> P -6.0720 -2.1224 0.9645
| 26> O -6.0469 -2.8372 -0.3409
| 27> O -7.5198 -1.5667 1.3413
| 28> O -5.7224 -3.0314 2.2265
| 29> C -3.4849 0.9198 -0.6131
| 30> O -3.3308 2.3520 -0.4962
| 31> C -2.6548 0.4609 -1.8143
| 32> O -2.9418 -0.9127 -2.0885
| 33> C -1.1394 0.6615 -1.5860
| 34> O -0.6941 1.7839 -2.3670
| 35> H 3.0101 -1.2613 0.7326
| 36> H 5.1696 0.7352 1.5455
| 37> H 4.6829 -0.6094 2.5519
| 38> H 6.8371 -2.3707 -1.3570
| 39> H 8.5403 0.3568 0.3586
| 40> H 3.8688 1.5055 -0.2435
| 41> H 4.5569 0.2597 -1.7150
| 42> H 1.5876 1.0151 -1.6881
| 43> H 0.8181 2.8155 -0.2361
| 44> H 0.0319 -1.4825 0.3937
| 45> H -1.7757 2.4909 0.1088
| 46> H -3.1963 0.9520 1.5243
| 47> H -3.5212 -1.8009 0.2220
| 48> H -3.3744 -1.4680 1.9409
| 49> H -7.9635 -1.1949 0.5573
| 50> H -6.2031 -3.8770 2.1877
| 51> H -4.5489 0.7267 -0.7880
| 52> H -4.0890 2.6645 0.0390
| 53> H -2.9712 1.0342 -2.6956
| 54> H -2.5847 -1.1106 -2.9749
| 55> H -0.6299 -0.2168 -1.9975
| 56> H -1.0843 2.5899 -1.9765
| 57> *
| 58>
| 59>                          ****END OF INPUT****
FINAL SINGLE POINT ENERGY      -115.454140048780
FINAL SINGLE POINT ENERGY      -115.468925286550
FINAL SINGLE POINT ENERGY      -115.471298878550
FINAL SINGLE POINT ENERGY      -115.474513755430
FINAL SINGLE POINT ENERGY      -115.475476096920
FINAL SINGLE POINT ENERGY      -115.477576176200
FINAL SINGLE POINT ENERGY      -115.478600915280
FINAL SINGLE POINT ENERGY      -115.479159908200
FINAL SINGLE POINT ENERGY      -115.479650191260
FINAL SINGLE POINT ENERGY      -115.480066181190
FINAL SINGLE POINT ENERGY      -115.484516740820
FINAL SINGLE POINT ENERGY      -115.484488145660
FINAL SINGLE POINT ENERGY      -115.484621075400
FINAL SINGLE POINT ENERGY      -115.484659849780
FINAL SINGLE POINT ENERGY      -115.484715311710
FINAL SINGLE POINT ENERGY      -115.484748465970
FINAL SINGLE POINT ENERGY      -115.484774713260
FINAL SINGLE POINT ENERGY      -115.484786037980
FINAL SINGLE POINT ENERGY      -115.484789887800
                    ***********************HURRAY********************

CARTESIAN COORDINATES (ANGSTROEM)
---------------------------------
  O     0.265359    1.068332    2.480031
  C     1.081615    0.780927    1.655352
  O     2.359905    0.595033    1.994284
  C     3.303809    0.193675    1.008246
  C     4.674744    0.133458    1.700419
  O     5.364493   -1.058659    1.400503
  P     5.972655   -1.216768   -0.084765
  O     6.445040    0.063776   -0.638627
  O     4.910491   -2.007595   -0.939078
  O     7.057486   -2.335718    0.125720
  C     3.265421    1.133444   -0.218832
  O     3.839476    0.522655   -1.346368
  C     1.815586    1.553217   -0.545553
  O     1.672686    2.872734   -0.094456
  C     0.805460    0.612290    0.144852
  O     1.034124   -0.715562   -0.264382
  C    -0.673993    0.956685   -0.184683
  O    -0.955339    2.252126    0.231064
  O    -1.398656   -0.043517    0.507744
  C    -2.801116    0.137586    0.546788
  C    -3.412242   -1.225871    0.865597
  O    -4.790441   -1.031168    1.130727
  P    -5.693605   -2.347725    1.141900
  O    -5.479360   -3.292916    0.046386
  O    -7.147988   -1.716359    1.223983
  O    -5.452768   -2.937109    2.597135
  C    -3.358400    0.708857   -0.772400
  O    -3.492867    2.121132   -0.715012
  C    -2.431500    0.361465   -1.946868
  O    -2.544154   -1.023720   -2.140637
  C    -0.960831    0.803466   -1.706286
  O    -0.649674    1.965671   -2.417620
  H     3.056062   -0.820652    0.670154
  H     5.289649    0.993192    1.415877
  H     4.516847    0.134845    2.781577
  H     4.291375   -1.394567   -1.361837
  H     7.902036   -1.945385    0.347497
  H     3.786303    2.066555    0.030351
  H     4.801918    0.679960   -1.331528
  H     1.686882    1.489139   -1.635829
  H     0.734529    3.060306    0.057923
  H     0.286588   -1.244168    0.051458
  H    -1.895768    2.448986    0.037654
  H    -3.054425    0.826062    1.370126
  H    -3.285632   -1.903986    0.016955
  H    -2.910055   -1.640178    1.743535
  H    -7.553124   -1.726979    0.358157
  H    -5.610346   -3.880314    2.603737
  H    -4.330307    0.244088   -0.968939
  H    -4.246011    2.340173   -0.154721
  H    -2.787503    0.914659   -2.830766
  H    -2.030884   -1.278645   -2.915885
  H    -0.305431    0.016258   -2.098129
  H    -0.968018    2.736809   -1.927534

FINAL SINGLE POINT ENERGY      -115.484791233930

VIBRATIONAL FREQUENCIES
-----------------------

Scaling factor for frequencies =  1.000000000 (already applied!)

   0:         0.00 cm**-1
   1:         0.00 cm**-1
   2:         0.00 cm**-1
   3:         0.00 cm**-1
   4:         0.00 cm**-1
   5:         0.00 cm**-1
   6:         6.47 cm**-1
   7:        16.39 cm**-1
   8:        18.71 cm**-1
   9:        28.19 cm**-1
  10:        38.46 cm**-1
  11:        43.96 cm**-1
  12:        56.34 cm**-1
  13:        63.92 cm**-1
  14:        73.88 cm**-1
  15:        95.41 cm**-1
  16:       105.28 cm**-1
  17:       115.29 cm**-1
  18:       121.28 cm**-1
  19:       130.31 cm**-1
  20:       142.18 cm**-1
  21:       152.16 cm**-1
  22:       159.35 cm**-1
  23:       169.72 cm**-1
  24:       180.05 cm**-1
  25:       189.48 cm**-1
  26:       193.24 cm**-1
  27:       205.69 cm**-1
  28:       214.04 cm**-1
  29:       218.56 cm**-1
  30:       226.02 cm**-1
  31:       230.37 cm**-1
  32:       237.63 cm**-1
  33:       245.79 cm**-1
  34:       273.94 cm**-1
  35:       285.42 cm**-1
  36:       306.67 cm**-1
  37:       311.96 cm**-1
  38:       316.05 cm**-1
  39:       325.04 cm**-1
  40:       330.27 cm**-1
  41:       337.14 cm**-1
  42:       345.15 cm**-1
  43:       345.30 cm**-1
  44:       354.38 cm**-1
  45:       366.63 cm**-1
  46:       374.59 cm**-1
  47:       395.95 cm**-1
  48:       397.60 cm**-1
  49:       401.41 cm**-1
  50:       409.49 cm**-1
  51:       421.18 cm**-1
  52:       425.45 cm**-1
  53:       442.51 cm**-1
  54:       444.29 cm**-1
  55:       447.98 cm**-1
  56:       453.76 cm**-1
  57:       464.56 cm**-1
  58:       481.47 cm**-1
  59:       487.42 cm**-1
  60:       501.62 cm**-1
  61:       508.94 cm**-1
  62:       525.02 cm**-1
  63:       529.88 cm**-1
  64:       537.32 cm**-1
  65:       552.08 cm**-1
  66:       570.15 cm**-1
  67:       571.87 cm**-1
  68:       607.90 cm**-1
  69:       620.31 cm**-1
  70:       668.25 cm**-1
  71:       696.23 cm**-1
  72:       725.53 cm**-1
  73:       741.91 cm**-1
  74:       776.04 cm**-1
  75:       796.23 cm**-1
  76:       817.14 cm**-1
  77:       831.98 cm**-1
  78:       836.31 cm**-1
  79:       840.21 cm**-1
  80:       864.46 cm**-1
  81:       882.35 cm**-1
  82:       884.27 cm**-1
  83:       886.30 cm**-1
  84:       904.96 cm**-1
  85:       906.47 cm**-1
  86:       924.05 cm**-1
  87:       950.99 cm**-1
  88:       971.85 cm**-1
  89:       993.97 cm**-1
  90:      1011.52 cm**-1
  91:      1024.46 cm**-1
  92:      1042.81 cm**-1
  93:      1054.31 cm**-1
  94:      1063.65 cm**-1
  95:      1076.73 cm**-1
  96:      1083.70 cm**-1
  97:      1084.87 cm**-1
  98:      1091.77 cm**-1
  99:      1095.59 cm**-1
 100:      1098.35 cm**-1
 101:      1103.96 cm**-1
 102:      1111.17 cm**-1
 103:      1119.53 cm**-1
 104:      1122.54 cm**-1
 105:      1126.49 cm**-1
 106:      1135.15 cm**-1
 107:      1135.61 cm**-1
 108:      1156.04 cm**-1
 109:      1176.32 cm**-1
 110:      1178.62 cm**-1
 111:      1189.02 cm**-1
 112:      1197.40 cm**-1
 113:      1201.84 cm**-1
 114:      1205.06 cm**-1
 115:      1228.89 cm**-1
 116:      1230.73 cm**-1
 117:      1239.40 cm**-1
 118:      1251.68 cm**-1
 119:      1258.64 cm**-1
 120:      1262.34 cm**-1
 121:      1271.61 cm**-1
 122:      1277.03 cm**-1
 123:      1284.38 cm**-1
 124:      1288.93 cm**-1
 125:      1292.41 cm**-1
 126:      1298.87 cm**-1
 127:      1302.69 cm**-1
 128:      1305.88 cm**-1
 129:      1316.63 cm**-1
 130:      1319.50 cm**-1
 131:      1330.65 cm**-1
 132:      1333.75 cm**-1
 133:      1338.06 cm**-1
 134:      1343.81 cm**-1
 135:      1349.41 cm**-1
 136:      1363.49 cm**-1
 137:      1440.62 cm**-1
 138:      1463.24 cm**-1
 139:      1796.81 cm**-1
 140:      2848.27 cm**-1
 141:      2865.04 cm**-1
 142:      2889.72 cm**-1
 143:      2915.13 cm**-1
 144:      2923.68 cm**-1
 145:      2934.02 cm**-1
 146:      2935.17 cm**-1
 147:      2942.88 cm**-1
 148:      2954.20 cm**-1
 149:      2959.56 cm**-1
 150:      2975.06 cm**-1
 151:      3213.98 cm**-1
 152:      3299.18 cm**-1
 153:      3366.05 cm**-1
 154:      3444.58 cm**-1
 155:      3466.06 cm**-1
 156:      3473.72 cm**-1
 157:      3537.86 cm**-1
 158:      3541.57 cm**-1
 159:      3613.82 cm**-1
 160:      3617.87 cm**-1
 161:      3625.72 cm**-1

IR SPECTRUM
-----------

 Mode   freq       eps      Int      T**2         TX        TY        TZ
       cm**-1   L/(mol*cm) km/mol    a.u.
----------------------------------------------------------------------------
  6:      6.47   0.000017    0.09  0.000814  (-0.000033 -0.014019 -0.024858)
  7:     16.39   0.000101    0.51  0.001916  (-0.032002  0.016549 -0.024861)
  8:     18.71   0.000174    0.88  0.002908  (-0.011317 -0.015939  0.050256)
  9:     28.19   0.000665    3.36  0.007365  (-0.015478  0.024362  0.080820)
 10:     38.46   0.000080    0.41  0.000653  ( 0.020881 -0.002757 -0.014471)
 11:     43.96   0.000730    3.69  0.005180  (-0.000443 -0.006514  0.071677)
 12:     56.34   0.000367    1.85  0.002032  ( 0.011705 -0.042061  0.011235)
 13:     63.92   0.000597    3.02  0.002916  ( 0.041073  0.025358 -0.024202)
 14:     73.88   0.000344    1.74  0.001454  (-0.001023  0.017740  0.033731)
 15:     95.41   0.000663    3.35  0.002168  (-0.014999 -0.000816 -0.044070)
 16:    105.28   0.000073    0.37  0.000218  ( 0.003486 -0.013451  0.004959)
 17:    115.29   0.001180    5.96  0.003195  (-0.006969 -0.036675  0.042441)
 18:    121.28   0.001222    6.18  0.003145  ( 0.009532  0.051513 -0.020027)
 19:    130.31   0.000955    4.83  0.002287  ( 0.033478 -0.033502  0.006593)
 20:    142.18   0.001992   10.06  0.004371  (-0.001483  0.011628 -0.065068)
 21:    152.16   0.004362   22.04  0.008946  (-0.075177  0.027055  0.050624)
 22:    159.35   0.010073   50.91  0.019728  ( 0.031446  0.028029 -0.133990)
 23:    169.72   0.008534   43.13  0.015691  ( 0.001484  0.011619 -0.124714)
 24:    180.05   0.001216    6.14  0.002107  ( 0.007948  0.009965 -0.044098)
 25:    189.48   0.000861    4.35  0.001419  (-0.023383  0.023253  0.018196)
 26:    193.24   0.006716   33.94  0.010845  ( 0.065501 -0.059655  0.054737)
 27:    205.69   0.008082   40.84  0.012262  (-0.036265  0.095792  0.042075)
 28:    214.04   0.011106   56.13  0.016192  ( 0.000877  0.120294 -0.041482)
 29:    218.56   0.009824   49.65  0.014027  (-0.085976  0.021943 -0.078444)
 30:    226.02   0.006814   34.43  0.009408  ( 0.041652 -0.054961  0.068206)
 31:    230.37   0.016463   83.19  0.022301  ( 0.119188  0.064543 -0.062682)
 32:    237.63   0.001537    7.77  0.002019  ( 0.024590  0.013194  0.035217)
 33:    245.79   0.003112   15.73  0.003951  ( 0.003818 -0.017347  0.060293)
 34:    273.94   0.000143    0.72  0.000163  (-0.008015 -0.008703  0.004802)
 35:    285.42   0.002063   10.43  0.002256  (-0.023231 -0.034050 -0.023599)
 36:    306.67   0.001268    6.41  0.001290  ( 0.020334 -0.016862  0.024339)
 37:    311.96   0.026334  133.08  0.026343  ( 0.140135 -0.022967  0.078600)
 38:    316.05   0.004362   22.04  0.004307  ( 0.026844 -0.013424  0.058362)
 39:    325.04   0.001063    5.37  0.001021  (-0.029284 -0.005459 -0.011546)
 40:    330.27   0.004525   22.87  0.004276  (-0.006659  0.055494  0.033939)
 41:    337.14   0.018978   95.91  0.017567  (-0.118629 -0.030752 -0.050479)
 42:    345.15   0.002713   13.71  0.002453  ( 0.011962  0.045525 -0.015400)
 43:    345.30   0.007583   38.32  0.006853  (-0.048245 -0.044561  0.050395)
 44:    354.38   0.038267  193.38  0.033697  ( 0.166837 -0.045991  0.061217)
 45:    366.63   0.016901   85.41  0.014386  (-0.099506 -0.012892 -0.065713)
 46:    374.59   0.002112   10.67  0.001759  ( 0.012370 -0.039796 -0.004760)
 47:    395.95   0.010414   52.63  0.008208  ( 0.077943 -0.039904 -0.023243)
 48:    397.60   0.005715   28.88  0.004486  ( 0.062437 -0.003215  0.024023)
 49:    401.41   0.005392   27.25  0.004192  (-0.013958  0.032919  0.053977)
 50:    409.49   0.008631   43.62  0.006577  (-0.064870 -0.004322 -0.048484)
 51:    421.18   0.022157  111.97  0.016417  (-0.035998 -0.100345  0.071076)
 52:    425.45   0.025026  126.47  0.018357  (-0.118936  0.011135 -0.063928)
 53:    442.51   0.012244   61.88  0.008635  (-0.077469  0.026199 -0.044126)
 54:    444.29   0.005283   26.70  0.003710  (-0.058385  0.008137 -0.015346)
 55:    447.98   0.004261   21.53  0.002968  ( 0.012959 -0.021242 -0.048468)
 56:    453.76   0.006287   31.77  0.004324  (-0.056421  0.032310 -0.009811)
 57:    464.56   0.009747   49.26  0.006548  ( 0.049797 -0.009532  0.063063)
 58:    481.47   0.016440   83.08  0.010655  ( 0.081144  0.048354 -0.041629)
 59:    487.42   0.017187   86.86  0.011004  (-0.028408 -0.038169  0.093488)
 60:    501.62   0.012020   60.74  0.007478  ( 0.032188  0.021971 -0.077194)
 61:    508.94   0.019075   96.40  0.011696  (-0.076046  0.045345  0.062105)
 62:    525.02   0.002932   14.82  0.001743  (-0.013263  0.025735 -0.030078)
 63:    529.88   0.009524   48.13  0.005609  ( 0.062573 -0.012759 -0.039123)
 64:    537.32   0.007568   38.25  0.004395  (-0.055959 -0.000661 -0.035544)
 65:    552.08   0.059743  301.92  0.033770  ( 0.037818 -0.149801  0.099495)
 66:    570.15   0.002163   10.93  0.001184  (-0.030257 -0.012863 -0.010154)
 67:    571.87   0.005106   25.80  0.002786  ( 0.015459 -0.032413  0.038686)
 68:    607.90   0.002001   10.11  0.001027  (-0.015562 -0.021077  0.018462)
 69:    620.31   0.052039  262.98  0.026180  (-0.000091  0.068400 -0.146633)
 70:    668.25   0.004982   25.17  0.002326  (-0.014890 -0.002362 -0.045815)
 71:    696.23   0.003866   19.54  0.001733  ( 0.007520  0.004699  0.040670)
 72:    725.53   0.010487   53.00  0.004511  ( 0.011742  0.027270  0.060242)
 73:    741.91   0.031935  161.39  0.013433  (-0.072938  0.012193  0.089242)
 74:    776.04   0.002356   11.91  0.000947  (-0.029243  0.007285  0.006260)
 75:    796.23   0.001590    8.03  0.000623  (-0.010659  0.015030  0.016836)
 76:    817.14   0.007293   36.85  0.002785  ( 0.028439  0.022978 -0.038056)
 77:    831.98   0.015876   80.23  0.005955  ( 0.022367 -0.018359 -0.071538)
 78:    836.31   0.009220   46.59  0.003440  (-0.031035 -0.033372  0.036926)
 79:    840.21   0.047840  241.77  0.017768  (-0.081262 -0.097028  0.041838)
 80:    864.46   0.052709  266.37  0.019027  (-0.068242  0.099341 -0.067096)
 81:    882.35   0.047618  240.64  0.016841  (-0.120738  0.044773 -0.016089)
 82:    884.27   0.080554  407.09  0.028428  (-0.160164  0.015426 -0.050373)
 83:    886.30   0.007672   38.77  0.002701  ( 0.033451  0.035378 -0.018183)
 84:    904.96   0.018643   94.21  0.006429  ( 0.065211  0.018420  0.042860)
 85:    906.47   0.019275   97.41  0.006636  (-0.080061 -0.005892 -0.013831)
 86:    924.05   0.048718  246.20  0.016453  ( 0.040319 -0.014988 -0.120841)
 87:    950.99   0.002502   12.64  0.000821  (-0.028236  0.002039 -0.004412)
 88:    971.85   0.096593  488.14  0.031016  (-0.041463  0.147563  0.086731)
 89:    993.97   0.002896   14.64  0.000909  ( 0.029816 -0.001997 -0.004033)
 90:   1011.52   0.009507   48.05  0.002933  ( 0.004868 -0.023839  0.048386)
 91:   1024.46   0.000599    3.03  0.000183  (-0.012589 -0.002691  0.004099)
 92:   1042.81   0.004628   23.39  0.001385  ( 0.014579  0.021542 -0.026613)
 93:   1054.31   0.004211   21.28  0.001246  (-0.022743  0.026881  0.002538)
 94:   1063.65   0.003249   16.42  0.000953  (-0.012242 -0.027187  0.008020)
 95:   1076.73   0.004249   21.47  0.001232  ( 0.022273 -0.024635 -0.011338)
 96:   1083.70   0.036434  184.12  0.010492  ( 0.064668 -0.045306 -0.065246)
 97:   1084.87   0.024431  123.46  0.007028  ( 0.059349  0.054008  0.024261)
 98:   1091.77   0.018862   95.32  0.005391  ( 0.041382 -0.052062  0.031120)
 99:   1095.59   0.005003   25.28  0.001425  (-0.008088 -0.006302  0.036329)
100:   1098.35   0.034145  172.55  0.009701  (-0.078332 -0.052399  0.028630)
101:   1103.96   0.010302   52.06  0.002912  (-0.027996 -0.041179 -0.020801)
102:   1111.17   0.011264   56.92  0.003163  ( 0.020953 -0.051037 -0.010934)
103:   1119.53   0.009100   45.99  0.002537  (-0.033946 -0.037188  0.001096)
104:   1122.54   0.014531   73.43  0.004040  ( 0.051046  0.014486 -0.034987)
105:   1126.49   0.009438   47.70  0.002615  ( 0.003210  0.044844  0.024358)
106:   1135.15   0.031585  159.62  0.008683  (-0.014408 -0.087644 -0.028177)
107:   1135.61   0.006332   32.00  0.001740  (-0.037620 -0.015829  0.008606)
108:   1156.04   0.021289  107.59  0.005747  ( 0.000597 -0.075784 -0.001806)
109:   1176.32   0.035965  181.75  0.009541  (-0.096904 -0.005656 -0.010902)
110:   1178.62   0.037337  188.69  0.009886  ( 0.063657 -0.068728  0.033318)
111:   1189.02   0.002222   11.23  0.000583  ( 0.008539 -0.018737 -0.012622)
112:   1197.40   0.001178    5.95  0.000307  (-0.014339  0.006824  0.007409)
113:   1201.84   0.009348   47.24  0.002427  ( 0.003164 -0.045112 -0.019548)
114:   1205.06   0.011720   59.23  0.003035  (-0.002561 -0.054782  0.005235)
115:   1228.89   0.032081  162.12  0.008146  (-0.020855 -0.082758  0.029370)
116:   1230.73   0.053701  271.38  0.013616  ( 0.023504  0.114000 -0.008246)
117:   1239.40   0.012573   63.54  0.003166  (-0.022082 -0.033001  0.039863)
118:   1251.68   0.005092   25.73  0.001270  (-0.012264  0.025878  0.021201)
119:   1258.64   0.007122   35.99  0.001766  ( 0.015776  0.017667 -0.034710)
120:   1262.34   0.012793   64.65  0.003163  (-0.016926 -0.031424 -0.043459)
121:   1271.61   0.068692  347.14  0.016858  ( 0.016584 -0.084725 -0.096976)
122:   1277.03   0.018407   93.02  0.004498  (-0.059555  0.016162 -0.026270)
123:   1284.38   0.000180    0.91  0.000044  (-0.004455  0.002842  0.003969)
124:   1288.93   0.000787    3.98  0.000191  (-0.005311 -0.002057 -0.012573)
125:   1292.41   0.010896   55.06  0.002631  (-0.034962  0.027561  0.025476)
126:   1298.87   0.012254   61.93  0.002944  ( 0.032412 -0.022602 -0.037187)
127:   1302.69   0.004968   25.11  0.001190  (-0.031478 -0.003525  0.013666)
128:   1305.88   0.002231   11.27  0.000533  ( 0.020000 -0.011359  0.002025)
129:   1316.63   0.003722   18.81  0.000882  ( 0.018643  0.022247  0.006305)
130:   1319.50   0.019410   98.09  0.004590  (-0.023006 -0.062377  0.013048)
131:   1330.65   0.031865  161.03  0.007473  (-0.026053 -0.069124 -0.044899)
132:   1333.75   0.002706   13.68  0.000633  ( 0.014513 -0.012571  0.016266)
133:   1338.06   0.011160   56.40  0.002603  (-0.015487 -0.036876 -0.031670)
134:   1343.81   0.002772   14.01  0.000644  (-0.004119 -0.019709  0.015440)
135:   1349.41   0.026359  133.21  0.006096  ( 0.040277  0.063349 -0.021458)
136:   1363.49   0.000981    4.96  0.000225  ( 0.010408  0.004242  0.009912)
137:   1440.62   0.000939    4.74  0.000203  ( 0.006157 -0.007149  0.010693)
138:   1463.24   0.000189    0.96  0.000040  ( 0.006233 -0.001136  0.000455)
139:   1796.81   0.093603  473.03  0.016257  ( 0.095038 -0.026196 -0.080859)
140:   2848.27   0.007909   39.97  0.000867  ( 0.019926 -0.002173 -0.021558)
141:   2865.04   0.007272   36.75  0.000792  (-0.015918  0.014150 -0.018397)
142:   2889.72   0.002670   13.49  0.000288  ( 0.001109 -0.001630 -0.016865)
143:   2915.13   0.000594    3.00  0.000064  (-0.004042 -0.006793 -0.001046)
144:   2923.68   0.000504    2.55  0.000054  (-0.001818  0.007063  0.000758)
145:   2934.02   0.000427    2.16  0.000045  ( 0.000940  0.005188  0.004201)
146:   2935.17   0.000396    2.00  0.000042  (-0.005090  0.003874  0.001105)
147:   2942.88   0.002440   12.33  0.000259  (-0.015870 -0.002527 -0.000731)
148:   2954.20   0.003065   15.49  0.000324  (-0.012265 -0.000790 -0.013142)
149:   2959.56   0.003214   16.24  0.000339  ( 0.016935 -0.001568 -0.007048)
150:   2975.06   0.002518   12.73  0.000264  ( 0.001734 -0.000242  0.016159)
151:   3213.98   0.089310  451.33  0.008672  (-0.089299  0.013545 -0.022668)
152:   3299.18   0.052146  263.52  0.004932  ( 0.070015 -0.004543  0.003100)
153:   3366.05   0.073926  373.59  0.006854  (-0.057234  0.052620 -0.028445)
154:   3444.58   0.022652  114.47  0.002052  (-0.044796 -0.002537  0.006247)
155:   3466.06   0.011972   60.50  0.001078  (-0.031909 -0.006619  0.003987)
156:   3473.72   0.007087   35.82  0.000637  (-0.001112 -0.010239 -0.023035)
157:   3537.86   0.005208   26.32  0.000459  (-0.010613  0.011166  0.014902)
158:   3541.57   0.010330   52.20  0.000910  (-0.023368  0.013618  0.013368)
159:   3613.82   0.011756   59.41  0.001015  ( 0.030462  0.009220  0.001497)
160:   3617.87   0.010829   54.73  0.000934  (-0.003618 -0.028588  0.010183)
161:   3625.72   0.008478   42.85  0.000730  ( 0.016710  0.010924  0.018198)

--------------------------
THERMOCHEMISTRY AT 298.15K
--------------------------

Temperature         ... 298.15 K
Pressure            ... 1.00 atm
Total Mass          ... 516.24 AMU

Throughout the following assumptions are being made:
  (1) The electronic state is orbitally nondegenerate
  (2) There are no thermally accessible electronically excited states
  (3) Hindered rotations indicated by low frequency modes are not
      treated as such but are treated as vibrations and this may
      cause some error
  (4) All equations used are the standard statistical mechanics
      equations for an ideal gas
  (5) All vibrations are strictly harmonic

freq.       6.47  E(vib)   ...       0.58
freq.      16.39  E(vib)   ...       0.57
freq.      18.71  E(vib)   ...       0.57
freq.      28.19  E(vib)   ...       0.55
freq.      38.46  E(vib)   ...       0.54
freq.      43.96  E(vib)   ...       0.53
freq.      56.34  E(vib)   ...       0.52
freq.      63.92  E(vib)   ...       0.51
freq.      73.88  E(vib)   ...       0.49
freq.      95.41  E(vib)   ...       0.47
freq.     105.28  E(vib)   ...       0.45
freq.     115.29  E(vib)   ...       0.44
freq.     121.28  E(vib)   ...       0.44
freq.     130.31  E(vib)   ...       0.43
freq.     142.18  E(vib)   ...       0.41
freq.     152.16  E(vib)   ...       0.40
freq.     159.35  E(vib)   ...       0.39
freq.     169.72  E(vib)   ...       0.38
freq.     180.05  E(vib)   ...       0.37
freq.     189.48  E(vib)   ...       0.36
freq.     193.24  E(vib)   ...       0.36
freq.     205.69  E(vib)   ...       0.35
freq.     214.04  E(vib)   ...       0.34
freq.     218.56  E(vib)   ...       0.33
freq.     226.02  E(vib)   ...       0.33
freq.     230.37  E(vib)   ...       0.32
freq.     237.63  E(vib)   ...       0.32
freq.     245.79  E(vib)   ...       0.31
freq.     273.94  E(vib)   ...       0.28
freq.     285.42  E(vib)   ...       0.28
freq.     306.67  E(vib)   ...       0.26
freq.     311.96  E(vib)   ...       0.25
freq.     316.05  E(vib)   ...       0.25
freq.     325.04  E(vib)   ...       0.24
freq.     330.27  E(vib)   ...       0.24
freq.     337.14  E(vib)   ...       0.24
freq.     345.15  E(vib)   ...       0.23
freq.     345.30  E(vib)   ...       0.23
freq.     354.38  E(vib)   ...       0.22
freq.     366.63  E(vib)   ...       0.22
freq.     374.59  E(vib)   ...       0.21
freq.     395.95  E(vib)   ...       0.20
freq.     397.60  E(vib)   ...       0.20
freq.     401.41  E(vib)   ...       0.19
freq.     409.49  E(vib)   ...       0.19
freq.     421.18  E(vib)   ...       0.18
freq.     425.45  E(vib)   ...       0.18
freq.     442.51  E(vib)   ...       0.17
freq.     444.29  E(vib)   ...       0.17
freq.     447.98  E(vib)   ...       0.17
freq.     453.76  E(vib)   ...       0.16
freq.     464.56  E(vib)   ...       0.16
freq.     481.47  E(vib)   ...       0.15
freq.     487.42  E(vib)   ...       0.15
freq.     501.62  E(vib)   ...       0.14
freq.     508.94  E(vib)   ...       0.14
freq.     525.02  E(vib)   ...       0.13
freq.     529.88  E(vib)   ...       0.13
freq.     537.32  E(vib)   ...       0.12
freq.     552.08  E(vib)   ...       0.12
freq.     570.15  E(vib)   ...       0.11
freq.     571.87  E(vib)   ...       0.11
freq.     607.90  E(vib)   ...       0.10
freq.     620.31  E(vib)   ...       0.09
freq.     668.25  E(vib)   ...       0.08
freq.     696.23  E(vib)   ...       0.07
freq.     725.53  E(vib)   ...       0.06
freq.     741.91  E(vib)   ...       0.06
freq.     776.04  E(vib)   ...       0.05
freq.     796.23  E(vib)   ...       0.05
freq.     817.14  E(vib)   ...       0.05
freq.     831.98  E(vib)   ...       0.04
freq.     836.31  E(vib)   ...       0.04
freq.     840.21  E(vib)   ...       0.04
freq.     864.46  E(vib)   ...       0.04
freq.     882.35  E(vib)   ...       0.04
freq.     884.27  E(vib)   ...       0.04
freq.     886.30  E(vib)   ...       0.04
freq.     904.96  E(vib)   ...       0.03
freq.     906.47  E(vib)   ...       0.03
freq.     924.05  E(vib)   ...       0.03
freq.     950.99  E(vib)   ...       0.03
freq.     971.85  E(vib)   ...       0.03
freq.     993.97  E(vib)   ...       0.02
freq.    1011.52  E(vib)   ...       0.02
freq.    1024.46  E(vib)   ...       0.02
freq.    1042.81  E(vib)   ...       0.02
freq.    1054.31  E(vib)   ...       0.02
freq.    1063.65  E(vib)   ...       0.02
freq.    1076.73  E(vib)   ...       0.02
freq.    1083.70  E(vib)   ...       0.02
freq.    1084.87  E(vib)   ...       0.02
freq.    1091.77  E(vib)   ...       0.02
freq.    1095.59  E(vib)   ...       0.02
freq.    1098.35  E(vib)   ...       0.02
freq.    1103.96  E(vib)   ...       0.02
freq.    1111.17  E(vib)   ...       0.01
freq.    1119.53  E(vib)   ...       0.01
freq.    1122.54  E(vib)   ...       0.01
freq.    1126.49  E(vib)   ...       0.01
freq.    1135.15  E(vib)   ...       0.01
freq.    1135.61  E(vib)   ...       0.01
freq.    1156.04  E(vib)   ...       0.01
freq.    1176.32  E(vib)   ...       0.01
freq.    1178.62  E(vib)   ...       0.01
freq.    1189.02  E(vib)   ...       0.01
freq.    1197.40  E(vib)   ...       0.01
freq.    1201.84  E(vib)   ...       0.01
freq.    1205.06  E(vib)   ...       0.01
freq.    1228.89  E(vib)   ...       0.01
freq.    1230.73  E(vib)   ...       0.01
freq.    1239.40  E(vib)   ...       0.01
freq.    1251.68  E(vib)   ...       0.01
freq.    1258.64  E(vib)   ...       0.01
freq.    1262.34  E(vib)   ...       0.01
freq.    1271.61  E(vib)   ...       0.01
freq.    1277.03  E(vib)   ...       0.01
freq.    1284.38  E(vib)   ...       0.01
freq.    1288.93  E(vib)   ...       0.01
freq.    1292.41  E(vib)   ...       0.01
freq.    1298.87  E(vib)   ...       0.01
freq.    1302.69  E(vib)   ...       0.01
freq.    1305.88  E(vib)   ...       0.01
freq.    1316.63  E(vib)   ...       0.01
freq.    1319.50  E(vib)   ...       0.01
freq.    1330.65  E(vib)   ...       0.01
freq.    1333.75  E(vib)   ...       0.01
freq.    1338.06  E(vib)   ...       0.01
freq.    1343.81  E(vib)   ...       0.01
freq.    1349.41  E(vib)   ...       0.01
freq.    1363.49  E(vib)   ...       0.01
freq.    1440.62  E(vib)   ...       0.00
freq.    1463.24  E(vib)   ...       0.00
freq.    1796.81  E(vib)   ...       0.00
freq.    2848.27  E(vib)   ...       0.00
freq.    2865.04  E(vib)   ...       0.00
freq.    2889.72  E(vib)   ...       0.00
freq.    2915.13  E(vib)   ...       0.00
freq.    2923.68  E(vib)   ...       0.00
freq.    2934.02  E(vib)   ...       0.00
freq.    2935.17  E(vib)   ...       0.00
freq.    2942.88  E(vib)   ...       0.00
freq.    2954.20  E(vib)   ...       0.00
freq.    2959.56  E(vib)   ...       0.00

Rotational constants in cm-1:     0.008088     0.001783     0.001661

                             ****ORCA TERMINATED NORMALLY****
TOTAL RUN TIME: 0 days 0 hours 13 minutes 57 seconds 919 msec
