                         Program Version 5.0.3 -  RELEASE  -
|  1> ! XTB2 opt numfreq
|  2> * XYZ 0 1
|  3> O -0.8320 -2.0620 2.4088
|  4> C -0.3372 -2.8150 1.5846
|  5> O -0.2429 -4.1354 1.8565
|  6> C 0.2171 -2.4207 0.2033
|  7> O 0.5158 -3.5904 -0.6017
|  8> C 1.5408 -1.6413 0.5073
|  9> O 2.5347 -2.5675 0.9831
| 10> C 2.1135 -0.8822 -0.7112
| 11> O 2.1740 -1.8179 -1.8194
| 12> C 3.4953 -0.2124 -0.5432
| 13> O 4.5171 -1.1913 -0.7396
| 14> C 3.6584 0.5682 0.7628
| 15> O 2.5326 1.4143 0.9470
| 16> P 2.7200 2.7993 1.7143
| 17> O 1.4640 3.4926 2.1186
| 18> O 3.6960 2.4984 2.9373
| 19> O 3.6326 3.6771 0.7384
| 20> C -0.8651 -1.5560 -0.5440
| 21> O -0.5718 -1.4986 -1.9595
| 22> O -0.8521 -0.2351 0.0019
| 23> C -1.7195 0.7042 -0.6514
| 24> C -1.5580 2.0300 0.1175
| 25> O -2.4231 3.0570 -0.3171
| 26> P -2.1220 3.7419 -1.7335
| 27> O -1.2476 3.0048 -2.6836
| 28> O -3.5876 4.0632 -2.2976
| 29> O -1.6162 5.2036 -1.3069
| 30> C -3.1823 0.2257 -0.6972
| 31> O -3.9843 1.0619 -1.5634
| 32> C -3.2715 -1.2213 -1.2066
| 33> O -4.6275 -1.6835 -1.0381
| 34> C -2.3033 -2.1436 -0.4456
| 35> O -2.4368 -3.4692 -0.9889
| 36> H -0.6192 -4.2293 2.7564
| 37> H 1.1034 -3.2948 -1.3330
| 38> H 1.3724 -0.9293 1.3233
| 39> H 2.4781 -3.3662 0.4249
| 40> H 1.4203 -0.0884 -1.0068
| 41> H 3.1387 -2.0035 -1.9116
| 42> H 3.5972 0.4920 -1.3759
| 43> H 5.3751 -0.7710 -0.5229
| 44> H 3.7496 -0.1079 1.6216
| 45> H 4.5826 1.1584 0.7227
| 46> H 3.6358 3.1995 3.6136
| 47> H 3.0793 4.2355 0.1550
| 48> H 0.3829 -1.6125 -2.1159
| 49> H -1.3649 0.8479 -1.6777
| 50> H -1.7626 1.8542 1.1805
| 51> H -0.5198 2.3786 0.0676
| 52> H -4.0304 3.2117 -2.4888
| 53> H -2.3398 5.7048 -0.8774
| 54> H -3.6328 0.2825 0.3061
| 55> H -4.8344 0.5710 -1.6416
| 56> H -3.0887 -1.2630 -2.2899
| 57> H -4.5753 -2.6516 -1.1911
| 58> H -2.6430 -2.2000 0.5943
| 59> H -1.5355 -3.8175 -1.1615
| 60> *
| 61>
| 62>                          ****END OF INPUT****
FINAL SINGLE POINT ENERGY      -120.542555495440
FINAL SINGLE POINT ENERGY      -120.561624915040
FINAL SINGLE POINT ENERGY      -120.567613932120
FINAL SINGLE POINT ENERGY      -120.569711684370
FINAL SINGLE POINT ENERGY      -120.571782161110
FINAL SINGLE POINT ENERGY      -120.572334335650
FINAL SINGLE POINT ENERGY      -120.573716326800
FINAL SINGLE POINT ENERGY      -120.574617555830
FINAL SINGLE POINT ENERGY      -120.575787588520
FINAL SINGLE POINT ENERGY      -120.577484698890
FINAL SINGLE POINT ENERGY      -120.606238510150
FINAL SINGLE POINT ENERGY      -120.606388046000
FINAL SINGLE POINT ENERGY      -120.606557673160
FINAL SINGLE POINT ENERGY      -120.606626272990
FINAL SINGLE POINT ENERGY      -120.606684363270
FINAL SINGLE POINT ENERGY      -120.606708424370
FINAL SINGLE POINT ENERGY      -120.606720582380
FINAL SINGLE POINT ENERGY      -120.606728372480
FINAL SINGLE POINT ENERGY      -120.606731985400
                    ***********************HURRAY********************

CARTESIAN COORDINATES (ANGSTROEM)
---------------------------------
  O    -1.174863   -2.759459    2.013375
  C    -0.384674   -3.254937    1.257356
  O     0.105210   -4.473881    1.406345
  C     0.233411   -2.533478    0.059151
  O     0.726885   -3.499821   -0.823782
  C     1.421802   -1.714200    0.677593
  O     2.334588   -2.609264    1.243217
  C     2.068118   -0.774082   -0.375353
  O     2.404527   -1.476225   -1.561032
  C     3.319827   -0.029525    0.119282
  O     4.360976   -0.974787    0.228953
  C     3.079725    0.735197    1.422034
  O     1.997028    1.640579    1.325528
  P     2.010554    2.882810    0.322136
  O     1.034871    3.914716    0.698840
  O     3.537441    3.360523    0.411155
  O     1.859372    2.330788   -1.136133
  C    -0.803692   -1.588681   -0.639712
  O    -0.453090   -1.390284   -1.978556
  O    -0.787453   -0.414362    0.127783
  C    -1.595777    0.655553   -0.329567
  C    -1.413152    1.732328    0.741812
  O    -1.927949    2.983379    0.376950
  P    -1.454551    3.756441   -0.941868
  O    -0.468389    3.032904   -1.785363
  O    -2.806313    4.066921   -1.680795
  O    -1.026478    5.187397   -0.478270
  C    -3.056010    0.244605   -0.529479
  O    -3.721693    1.289552   -1.207391
  C    -3.122274   -1.050658   -1.347579
  O    -4.467088   -1.465625   -1.412380
  C    -2.246077   -2.137465   -0.699456
  O    -2.338160   -3.337861   -1.412909
  H    -0.279085   -4.900125    2.190006
  H     1.222927   -3.039858   -1.523901
  H     1.017354   -1.092104    1.479622
  H     2.392364   -3.385464    0.664721
  H     1.333216   -0.008777   -0.632292
  H     3.291962   -1.836316   -1.415422
  H     3.572836    0.706940   -0.661501
  H     5.096760   -0.589354    0.713074
  H     2.828693    0.042571    2.229279
  H     3.990502    1.285928    1.682820
  H     3.610821    4.274937    0.142457
  H     0.957282    2.609296   -1.490807
  H     0.473416   -1.124899   -2.070266
  H    -1.223129    1.028920   -1.291047
  H    -1.944093    1.437511    1.650516
  H    -0.345085    1.803608    0.966430
  H    -3.315410    3.252446   -1.754234
  H    -0.222455    5.076869    0.052341
  H    -3.531828    0.060634    0.445415
  H    -4.584618    0.934919   -1.462043
  H    -2.746381   -0.851283   -2.364317
  H    -4.463024   -2.420840   -1.560181
  H    -2.613898   -2.330252    0.311331
  H    -1.765680   -3.264503   -2.189089

FINAL SINGLE POINT ENERGY      -120.606733743400

VIBRATIONAL FREQUENCIES
-----------------------

Scaling factor for frequencies =  1.000000000 (already applied!)

   0:         0.00 cm**-1
   1:         0.00 cm**-1
   2:         0.00 cm**-1
   3:         0.00 cm**-1
   4:         0.00 cm**-1
   5:         0.00 cm**-1
   6:        23.31 cm**-1
   7:        31.10 cm**-1
   8:        46.37 cm**-1
   9:        56.14 cm**-1
  10:        57.84 cm**-1
  11:        69.77 cm**-1
  12:        74.77 cm**-1
  13:        88.44 cm**-1
  14:        90.14 cm**-1
  15:        98.65 cm**-1
  16:       101.47 cm**-1
  17:       106.05 cm**-1
  18:       110.34 cm**-1
  19:       117.73 cm**-1
  20:       119.01 cm**-1
  21:       131.00 cm**-1
  22:       144.96 cm**-1
  23:       167.73 cm**-1
  24:       171.81 cm**-1
  25:       178.29 cm**-1
  26:       184.25 cm**-1
  27:       202.23 cm**-1
  28:       208.24 cm**-1
  29:       220.10 cm**-1
  30:       222.65 cm**-1
  31:       226.05 cm**-1
  32:       230.57 cm**-1
  33:       237.41 cm**-1
  34:       257.11 cm**-1
  35:       257.96 cm**-1
  36:       268.62 cm**-1
  37:       276.16 cm**-1
  38:       284.77 cm**-1
  39:       290.02 cm**-1
  40:       306.78 cm**-1
  41:       322.52 cm**-1
  42:       326.40 cm**-1
  43:       336.22 cm**-1
  44:       340.19 cm**-1
  45:       345.55 cm**-1
  46:       351.72 cm**-1
  47:       357.37 cm**-1
  48:       361.28 cm**-1
  49:       369.49 cm**-1
  50:       373.52 cm**-1
  51:       387.66 cm**-1
  52:       394.38 cm**-1
  53:       411.19 cm**-1
  54:       414.78 cm**-1
  55:       417.18 cm**-1
  56:       440.89 cm**-1
  57:       441.43 cm**-1
  58:       444.94 cm**-1
  59:       457.07 cm**-1
  60:       462.52 cm**-1
  61:       484.74 cm**-1
  62:       489.58 cm**-1
  63:       497.24 cm**-1
  64:       501.74 cm**-1
  65:       520.22 cm**-1
  66:       535.49 cm**-1
  67:       553.76 cm**-1
  68:       559.82 cm**-1
  69:       577.92 cm**-1
  70:       585.19 cm**-1
  71:       590.46 cm**-1
  72:       611.89 cm**-1
  73:       635.63 cm**-1
  74:       669.57 cm**-1
  75:       691.49 cm**-1
  76:       732.89 cm**-1
  77:       743.82 cm**-1
  78:       764.68 cm**-1
  79:       769.91 cm**-1
  80:       794.81 cm**-1
  81:       812.21 cm**-1
  82:       832.16 cm**-1
  83:       845.77 cm**-1
  84:       879.74 cm**-1
  85:       886.18 cm**-1
  86:       897.46 cm**-1
  87:       911.04 cm**-1
  88:       911.52 cm**-1
  89:       921.23 cm**-1
  90:       941.61 cm**-1
  91:       942.75 cm**-1
  92:       981.08 cm**-1
  93:      1010.56 cm**-1
  94:      1021.63 cm**-1
  95:      1028.97 cm**-1
  96:      1032.07 cm**-1
  97:      1043.74 cm**-1
  98:      1056.09 cm**-1
  99:      1063.50 cm**-1
 100:      1071.88 cm**-1
 101:      1073.52 cm**-1
 102:      1085.35 cm**-1
 103:      1092.21 cm**-1
 104:      1095.93 cm**-1
 105:      1102.16 cm**-1
 106:      1114.30 cm**-1
 107:      1123.73 cm**-1
 108:      1124.58 cm**-1
 109:      1131.33 cm**-1
 110:      1138.25 cm**-1
 111:      1141.91 cm**-1
 112:      1148.14 cm**-1
 113:      1152.46 cm**-1
 114:      1156.19 cm**-1
 115:      1165.32 cm**-1
 116:      1177.24 cm**-1
 117:      1188.77 cm**-1
 118:      1192.46 cm**-1
 119:      1199.76 cm**-1
 120:      1209.59 cm**-1
 121:      1215.12 cm**-1
 122:      1225.62 cm**-1
 123:      1229.55 cm**-1
 124:      1240.47 cm**-1
 125:      1247.11 cm**-1
 126:      1252.78 cm**-1
 127:      1267.38 cm**-1
 128:      1268.42 cm**-1
 129:      1278.11 cm**-1
 130:      1283.87 cm**-1
 131:      1290.89 cm**-1
 132:      1301.25 cm**-1
 133:      1307.20 cm**-1
 134:      1313.31 cm**-1
 135:      1325.26 cm**-1
 136:      1327.06 cm**-1
 137:      1332.25 cm**-1
 138:      1336.35 cm**-1
 139:      1343.63 cm**-1
 140:      1346.34 cm**-1
 141:      1351.03 cm**-1
 142:      1351.72 cm**-1
 143:      1359.41 cm**-1
 144:      1455.53 cm**-1
 145:      1462.59 cm**-1
 146:      1796.28 cm**-1
 147:      2586.15 cm**-1
 148:      2859.80 cm**-1
 149:      2865.16 cm**-1
 150:      2882.12 cm**-1
 151:      2918.18 cm**-1
 152:      2928.10 cm**-1
 153:      2961.61 cm**-1
 154:      2968.52 cm**-1
 155:      2969.32 cm**-1
 156:      2982.79 cm**-1
 157:      2990.86 cm**-1
 158:      2995.93 cm**-1
 159:      3352.12 cm**-1
 160:      3359.00 cm**-1
 161:      3424.37 cm**-1
 162:      3438.52 cm**-1
 163:      3463.23 cm**-1
 164:      3470.40 cm**-1
 165:      3480.24 cm**-1
 166:      3489.49 cm**-1
 167:      3493.95 cm**-1
 168:      3497.76 cm**-1
 169:      3573.34 cm**-1
 170:      3631.93 cm**-1

IR SPECTRUM
-----------

 Mode   freq       eps      Int      T**2         TX        TY        TZ
       cm**-1   L/(mol*cm) km/mol    a.u.
----------------------------------------------------------------------------
  6:     23.31   0.000111    0.56  0.001485  (-0.036597  0.008486 -0.008580)
  7:     31.10   0.000038    0.19  0.000378  (-0.003937 -0.016721 -0.009131)
  8:     46.37   0.000364    1.84  0.002448  ( 0.009081 -0.017829  0.045254)
  9:     56.14   0.000412    2.08  0.002292  ( 0.034080  0.029181  0.016711)
 10:     57.84   0.000498    2.51  0.002685  ( 0.012106  0.036596  0.034633)
 11:     69.77   0.000508    2.57  0.002273  (-0.007408 -0.013772  0.045043)
 12:     74.77   0.001647    8.32  0.006875  ( 0.033508 -0.022812  0.072333)
 13:     88.44   0.002864   14.47  0.010104  ( 0.100028 -0.009438  0.003096)
 14:     90.14   0.000097    0.49  0.000336  (-0.009515 -0.004359  0.015044)
 15:     98.65   0.000223    1.12  0.000704  (-0.005289 -0.024559  0.008536)
 16:    101.47   0.000216    1.09  0.000664  (-0.023255 -0.005321 -0.009742)
 17:    106.05   0.000126    0.64  0.000372  ( 0.008310  0.014312 -0.009895)
 18:    110.34   0.000067    0.34  0.000189  ( 0.010613  0.002130  0.008485)
 19:    117.73   0.000042    0.21  0.000112  ( 0.008203  0.005207 -0.004215)
 20:    119.01   0.001069    5.40  0.002804  (-0.029840 -0.033666  0.027939)
 21:    131.00   0.000246    1.24  0.000586  ( 0.000801 -0.009191  0.022370)
 22:    144.96   0.000175    0.89  0.000378  ( 0.013867 -0.013516  0.001663)
 23:    167.73   0.006149   31.08  0.011441  (-0.025592 -0.054265  0.088554)
 24:    171.81   0.000861    4.35  0.001564  ( 0.020727  0.011496  0.031662)
 25:    178.29   0.001976    9.99  0.003459  ( 0.022895 -0.016473 -0.051609)
 26:    184.25   0.019494   98.51  0.033018  (-0.052374  0.021658  0.172643)
 27:    202.23   0.003749   18.95  0.005785  (-0.049376  0.020256 -0.054193)
 28:    208.24   0.009057   45.77  0.013572  ( 0.045793  0.009883 -0.106666)
 29:    220.10   0.000296    1.50  0.000420  ( 0.011688 -0.010327  0.013278)
 30:    222.65   0.004499   22.74  0.006306  (-0.021935  0.040603 -0.064623)
 31:    226.05   0.000814    4.11  0.001124  (-0.028005 -0.017081 -0.006920)
 32:    230.57   0.000575    2.90  0.000778  ( 0.013381  0.022013 -0.010685)
 33:    237.41   0.001233    6.23  0.001620  (-0.005589  0.022034  0.033223)
 34:    257.11   0.002167   10.95  0.002630  ( 0.025389 -0.042596 -0.013083)
 35:    257.96   0.006653   33.62  0.008048  (-0.088988  0.006724 -0.009144)
 36:    268.62   0.003735   18.87  0.004339  (-0.053527 -0.028548 -0.025670)
 37:    276.16   0.003623   18.31  0.004094  ( 0.062328 -0.014104  0.003272)
 38:    284.77   0.001225    6.19  0.001342  (-0.020528  0.017286  0.024942)
 39:    290.02   0.005406   27.32  0.005817  (-0.044548  0.009882 -0.061116)
 40:    306.78   0.003166   16.00  0.003221  ( 0.056459 -0.005734 -0.000595)
 41:    322.52   0.021066  106.46  0.020384  (-0.142646  0.005487 -0.002387)
 42:    326.40   0.024896  125.81  0.023803  (-0.148568  0.039644  0.012591)
 43:    336.22   0.001171    5.92  0.001087  ( 0.027487  0.016854  0.006852)
 44:    340.19   0.007760   39.22  0.007119  ( 0.074081 -0.033689  0.022267)
 45:    345.55   0.002129   10.76  0.001923  (-0.016509  0.040623  0.000453)
 46:    351.72   0.003775   19.08  0.003349  (-0.019953  0.021683 -0.049807)
 47:    357.37   0.005472   27.65  0.004778  (-0.010822 -0.005172  0.068077)
 48:    361.28   0.004443   22.45  0.003838  ( 0.035593  0.036815  0.034866)
 49:    369.49   0.009859   49.82  0.008326  ( 0.010522  0.042976 -0.079804)
 50:    373.52   0.019416   98.12  0.016222  (-0.095044 -0.082226  0.020663)
 51:    387.66   0.006251   31.59  0.005032  ( 0.047627  0.019333 -0.048883)
 52:    394.38   0.004286   21.66  0.003391  (-0.007373 -0.034121  0.046612)
 53:    411.19   0.014503   73.29  0.011007  ( 0.012471  0.103718  0.009694)
 54:    414.78   0.015039   76.00  0.011315  ( 0.094387  0.003898  0.048893)
 55:    417.18   0.019555   98.83  0.014628  ( 0.090335  0.069598  0.040295)
 56:    440.89   0.012642   63.89  0.008948  (-0.079458  0.037129 -0.035442)
 57:    441.43   0.013026   65.83  0.009208  ( 0.062099 -0.003408 -0.073078)
 58:    444.94   0.015773   79.71  0.011063  ( 0.062444  0.029667  0.079267)
 59:    457.07   0.048013  242.64  0.032780  ( 0.053431 -0.027608 -0.170772)
 60:    462.52   0.004442   22.45  0.002997  ( 0.011521  0.035183  0.040326)
 61:    484.74   0.020495  103.57  0.013194  ( 0.063764  0.012177  0.094762)
 62:    489.58   0.016381   82.78  0.010441  ( 0.013860 -0.024819  0.098149)
 63:    497.24   0.011178   56.49  0.007015  (-0.042745  0.070838  0.013051)
 64:    501.74   0.016507   83.42  0.010267  ( 0.016774  0.099677 -0.007051)
 65:    520.22   0.026549  134.17  0.015926  ( 0.015033  0.108763 -0.062211)
 66:    535.49   0.002966   14.99  0.001729  (-0.002408 -0.040766  0.007805)
 67:    553.76   0.004234   21.40  0.002386  (-0.027566 -0.039225 -0.009350)
 68:    559.82   0.008084   40.86  0.004506  (-0.036433  0.008840 -0.055687)
 69:    577.92   0.033678  170.20  0.018185  ( 0.078447  0.037674 -0.103015)
 70:    585.19   0.012093   61.11  0.006449  ( 0.009698  0.034456  0.071887)
 71:    590.46   0.013622   68.84  0.007200  ( 0.055303  0.038467  0.051590)
 72:    611.89   0.003879   19.60  0.001978  (-0.023135  0.037504 -0.006044)
 73:    635.63   0.011632   58.78  0.005711  ( 0.003846  0.070298 -0.027461)
 74:    669.57   0.003464   17.51  0.001615  ( 0.008150  0.035460 -0.017051)
 75:    691.49   0.027002  136.46  0.012186  ( 0.085631  0.032309  0.061722)
 76:    732.89   0.006266   31.66  0.002668  ( 0.021589 -0.043731  0.017012)
 77:    743.82   0.044713  225.96  0.018759  (-0.041599 -0.044427  0.122697)
 78:    764.68   0.000515    2.60  0.000210  ( 0.005201 -0.004338  0.012824)
 79:    769.91   0.002977   15.04  0.001206  ( 0.007056 -0.030719  0.014597)
 80:    794.81   0.018764   94.83  0.007367  ( 0.067024  0.051510 -0.014890)
 81:    812.21   0.001765    8.92  0.000678  (-0.020507  0.012367  0.010237)
 82:    832.16   0.012261   61.96  0.004598  (-0.024208  0.059438  0.021883)
 83:    845.77   0.002366   11.96  0.000873  ( 0.025459 -0.008540  0.012323)
 84:    879.74   0.082050  414.65  0.029105  (-0.146537 -0.076799  0.041638)
 85:    886.18   0.011852   59.89  0.004173  (-0.028580 -0.036848 -0.044708)
 86:    897.46   0.004409   22.28  0.001533  (-0.007090 -0.028529  0.025864)
 87:    911.04   0.076393  386.06  0.026167  (-0.119982 -0.032750 -0.103435)
 88:    911.52   0.063506  320.94  0.021742  (-0.122911 -0.020238 -0.078898)
 89:    921.23   0.017084   86.34  0.005787  (-0.006385 -0.061393  0.044468)
 90:    941.61   0.002788   14.09  0.000924  ( 0.024281  0.018279  0.000453)
 91:    942.75   0.004605   23.27  0.001524  (-0.026030 -0.008661  0.027780)
 92:    981.08   0.004022   20.33  0.001279  (-0.001299  0.031726 -0.016465)
 93:   1010.56   0.172794  873.23  0.053359  (-0.041838  0.217194 -0.066598)
 94:   1021.63   0.027568  139.32  0.008421  (-0.045785  0.075729 -0.024283)
 95:   1028.97   0.010548   53.30  0.003199  ( 0.044894  0.033574 -0.007495)
 96:   1032.07   0.007712   38.97  0.002332  ( 0.001357 -0.044684  0.018253)
 97:   1043.74   0.007567   38.24  0.002262  ( 0.030212 -0.026686  0.025247)
 98:   1056.09   0.002836   14.33  0.000838  ( 0.002408 -0.019968 -0.020819)
 99:   1063.50   0.006358   32.13  0.001866  (-0.028981  0.031465  0.005967)
100:   1071.88   0.024980  126.24  0.007273  (-0.019313  0.006262 -0.082828)
101:   1073.52   0.005402   27.30  0.001570  ( 0.005054 -0.017622  0.035132)
102:   1085.35   0.016692   84.35  0.004799  ( 0.042553  0.014688  0.052657)
103:   1092.21   0.029802  150.61  0.008515  ( 0.022466 -0.089388  0.004482)
104:   1095.93   0.037439  189.20  0.010661  ( 0.058611 -0.081991  0.022426)
105:   1102.16   0.019949  100.82  0.005648  (-0.027746 -0.054586  0.043577)
106:   1114.30   0.009634   48.69  0.002698  ( 0.043966 -0.024818  0.012209)
107:   1123.73   0.003227   16.31  0.000896  (-0.025349  0.013274  0.008795)
108:   1124.58   0.002313   11.69  0.000642  (-0.023723 -0.005373  0.007085)
109:   1131.33   0.034513  174.41  0.009520  ( 0.058919  0.007362 -0.077423)
110:   1138.25   0.031767  160.54  0.008709  (-0.070790  0.034148 -0.050317)
111:   1141.91   0.055846  282.22  0.015262  ( 0.057317 -0.108072 -0.017223)
112:   1148.14   0.046776  236.39  0.012714  ( 0.022529 -0.110356 -0.005275)
113:   1152.46   0.007705   38.94  0.002086  ( 0.021522 -0.035826 -0.018428)
114:   1156.19   0.010087   50.98  0.002723  ( 0.021012 -0.024785 -0.040827)
115:   1165.32   0.016173   81.73  0.004331  (-0.000968 -0.035753  0.055244)
116:   1177.24   0.045115  227.99  0.011959  ( 0.073349 -0.079388 -0.016631)
117:   1188.77   0.006989   35.32  0.001835  ( 0.021816 -0.018663 -0.031788)
118:   1192.46   0.005157   26.06  0.001350  (-0.026341  0.022286  0.012611)
119:   1199.76   0.023726  119.90  0.006171  ( 0.074399 -0.024855 -0.004285)
120:   1209.59   0.010866   54.91  0.002803  ( 0.027973  0.005639 -0.044598)
121:   1215.12   0.004430   22.39  0.001138  ( 0.030684  0.002714  0.013742)
122:   1225.62   0.006642   33.57  0.001691  (-0.007981 -0.031065 -0.025738)
123:   1229.55   0.004602   23.26  0.001168  ( 0.005225 -0.028691  0.017817)
124:   1240.47   0.035128  177.52  0.008837  ( 0.037201 -0.084540  0.017496)
125:   1247.11   0.084495  427.00  0.021143  ( 0.056758 -0.122790 -0.053331)
126:   1252.78   0.067661  341.93  0.016854  (-0.117475  0.029633  0.046642)
127:   1267.38   0.001883    9.52  0.000464  ( 0.011613  0.010152 -0.015023)
128:   1268.42   0.007415   37.47  0.001824  (-0.040721  0.012355 -0.003659)
129:   1278.11   0.019793  100.03  0.004833  ( 0.015342 -0.054904 -0.039785)
130:   1283.87   0.019651   99.31  0.004777  (-0.038169  0.015038 -0.055619)
131:   1290.89   0.006084   30.74  0.001471  (-0.015623 -0.033861  0.008948)
132:   1301.25   0.005777   29.20  0.001386  ( 0.002523 -0.026581 -0.025934)
133:   1307.20   0.006697   33.84  0.001599  (-0.007595  0.005143  0.038917)
134:   1313.31   0.005092   25.73  0.001210  (-0.000289  0.016563 -0.030585)
135:   1325.26   0.008235   41.62  0.001939  ( 0.022094 -0.038084  0.000801)
136:   1327.06   0.009979   50.43  0.002347  ( 0.018129  0.023006  0.038583)
137:   1332.25   0.003995   20.19  0.000936  (-0.010374 -0.028669 -0.002494)
138:   1336.35   0.014658   74.08  0.003423  (-0.042811  0.010028 -0.038596)
139:   1343.63   0.018361   92.79  0.004264  ( 0.022517  0.061118 -0.004693)
140:   1346.34   0.001204    6.08  0.000279  (-0.010400 -0.010181  0.008201)
141:   1351.03   0.013693   69.20  0.003163  ( 0.032635  0.018932  0.041705)
142:   1351.72   0.006321   31.95  0.001459  ( 0.013174 -0.030882  0.018224)
143:   1359.41   0.012569   63.52  0.002885  (-0.002889 -0.007155 -0.053158)
144:   1455.53   0.000386    1.95  0.000083  (-0.008956  0.000785 -0.001386)
145:   1462.59   0.000636    3.22  0.000136  ( 0.006975  0.003304  0.008729)
146:   1796.28   0.078907  398.76  0.013708  ( 0.084606 -0.055356 -0.059042)
147:   2586.15   0.368141  1860.43  0.044422  ( 0.196787 -0.047183  0.058918)
148:   2859.80   0.005872   29.67  0.000641  (-0.004304 -0.004731  0.024491)
149:   2865.16   0.005310   26.83  0.000578  (-0.010711 -0.000508  0.021526)
150:   2882.12   0.014244   71.98  0.001542  ( 0.024110  0.002331 -0.030912)
151:   2918.18   0.006072   30.69  0.000649  (-0.025416 -0.001626  0.000833)
152:   2928.10   0.000274    1.38  0.000029  (-0.003700 -0.002284 -0.003208)
153:   2961.61   0.004288   21.67  0.000452  ( 0.020307 -0.000670 -0.006245)
154:   2968.52   0.000127    0.64  0.000013  (-0.003006  0.001800 -0.001032)
155:   2969.32   0.000806    4.07  0.000085  ( 0.002034 -0.001140  0.008901)
156:   2982.79   0.001668    8.43  0.000175  (-0.013109  0.001093  0.001224)
157:   2990.86   0.001947    9.84  0.000203  (-0.010652 -0.000067  0.009469)
158:   2995.93   0.000672    3.40  0.000070  ( 0.007625 -0.003443 -0.000036)
159:   3352.12   0.072065  364.19  0.006709  ( 0.073112 -0.006506  0.036347)
160:   3359.00   0.023984  121.20  0.002228  (-0.034235 -0.021217  0.024617)
161:   3424.37   0.016750   84.65  0.001526  ( 0.004969  0.027799 -0.026999)
162:   3438.52   0.011243   56.82  0.001020  (-0.015197 -0.014759 -0.023907)
163:   3463.23   0.029762  150.41  0.002682  (-0.050824  0.006299 -0.007688)
164:   3470.40   0.008751   44.22  0.000787  ( 0.011312  0.025638 -0.001293)
165:   3480.24   0.033875  171.19  0.003038  ( 0.032885  0.043483  0.008085)
166:   3489.49   0.007093   35.84  0.000634  ( 0.015055 -0.009715 -0.017700)
167:   3493.95   0.008802   44.48  0.000786  ( 0.003685 -0.027578 -0.003469)
168:   3497.76   0.004013   20.28  0.000358  (-0.013207 -0.006166 -0.012065)
169:   3573.34   0.004266   21.56  0.000373  ( 0.010434  0.015044  0.006115)
170:   3631.93   0.013852   70.00  0.001190  ( 0.004682  0.030194 -0.016017)

--------------------------
THERMOCHEMISTRY AT 298.15K
--------------------------

Temperature         ... 298.15 K
Pressure            ... 1.00 atm
Total Mass          ... 534.25 AMU

Throughout the following assumptions are being made:
  (1) The electronic state is orbitally nondegenerate
  (2) There are no thermally accessible electronically excited states
  (3) Hindered rotations indicated by low frequency modes are not
      treated as such but are treated as vibrations and this may
      cause some error
  (4) All equations used are the standard statistical mechanics
      equations for an ideal gas
  (5) All vibrations are strictly harmonic

freq.      23.31  E(vib)   ...       0.56
freq.      31.10  E(vib)   ...       0.55
freq.      46.37  E(vib)   ...       0.53
freq.      56.14  E(vib)   ...       0.52
freq.      57.84  E(vib)   ...       0.51
freq.      69.77  E(vib)   ...       0.50
freq.      74.77  E(vib)   ...       0.49
freq.      88.44  E(vib)   ...       0.48
freq.      90.14  E(vib)   ...       0.47
freq.      98.65  E(vib)   ...       0.46
freq.     101.47  E(vib)   ...       0.46
freq.     106.05  E(vib)   ...       0.45
freq.     110.34  E(vib)   ...       0.45
freq.     117.73  E(vib)   ...       0.44
freq.     119.01  E(vib)   ...       0.44
freq.     131.00  E(vib)   ...       0.42
freq.     144.96  E(vib)   ...       0.41
freq.     167.73  E(vib)   ...       0.38
freq.     171.81  E(vib)   ...       0.38
freq.     178.29  E(vib)   ...       0.37
freq.     184.25  E(vib)   ...       0.37
freq.     202.23  E(vib)   ...       0.35
freq.     208.24  E(vib)   ...       0.34
freq.     220.10  E(vib)   ...       0.33
freq.     222.65  E(vib)   ...       0.33
freq.     226.05  E(vib)   ...       0.33
freq.     230.57  E(vib)   ...       0.32
freq.     237.41  E(vib)   ...       0.32
freq.     257.11  E(vib)   ...       0.30
freq.     257.96  E(vib)   ...       0.30
freq.     268.62  E(vib)   ...       0.29
freq.     276.16  E(vib)   ...       0.28
freq.     284.77  E(vib)   ...       0.28
freq.     290.02  E(vib)   ...       0.27
freq.     306.78  E(vib)   ...       0.26
freq.     322.52  E(vib)   ...       0.25
freq.     326.40  E(vib)   ...       0.24
freq.     336.22  E(vib)   ...       0.24
freq.     340.19  E(vib)   ...       0.23
freq.     345.55  E(vib)   ...       0.23
freq.     351.72  E(vib)   ...       0.23
freq.     357.37  E(vib)   ...       0.22
freq.     361.28  E(vib)   ...       0.22
freq.     369.49  E(vib)   ...       0.21
freq.     373.52  E(vib)   ...       0.21
freq.     387.66  E(vib)   ...       0.20
freq.     394.38  E(vib)   ...       0.20
freq.     411.19  E(vib)   ...       0.19
freq.     414.78  E(vib)   ...       0.19
freq.     417.18  E(vib)   ...       0.18
freq.     440.89  E(vib)   ...       0.17
freq.     441.43  E(vib)   ...       0.17
freq.     444.94  E(vib)   ...       0.17
freq.     457.07  E(vib)   ...       0.16
freq.     462.52  E(vib)   ...       0.16
freq.     484.74  E(vib)   ...       0.15
freq.     489.58  E(vib)   ...       0.15
freq.     497.24  E(vib)   ...       0.14
freq.     501.74  E(vib)   ...       0.14
freq.     520.22  E(vib)   ...       0.13
freq.     535.49  E(vib)   ...       0.12
freq.     553.76  E(vib)   ...       0.12
freq.     559.82  E(vib)   ...       0.12
freq.     577.92  E(vib)   ...       0.11
freq.     585.19  E(vib)   ...       0.11
freq.     590.46  E(vib)   ...       0.10
freq.     611.89  E(vib)   ...       0.10
freq.     635.63  E(vib)   ...       0.09
freq.     669.57  E(vib)   ...       0.08
freq.     691.49  E(vib)   ...       0.07
freq.     732.89  E(vib)   ...       0.06
freq.     743.82  E(vib)   ...       0.06
freq.     764.68  E(vib)   ...       0.06
freq.     769.91  E(vib)   ...       0.05
freq.     794.81  E(vib)   ...       0.05
freq.     812.21  E(vib)   ...       0.05
freq.     832.16  E(vib)   ...       0.04
freq.     845.77  E(vib)   ...       0.04
freq.     879.74  E(vib)   ...       0.04
freq.     886.18  E(vib)   ...       0.04
freq.     897.46  E(vib)   ...       0.03
freq.     911.04  E(vib)   ...       0.03
freq.     911.52  E(vib)   ...       0.03
freq.     921.23  E(vib)   ...       0.03
freq.     941.61  E(vib)   ...       0.03
freq.     942.75  E(vib)   ...       0.03
freq.     981.08  E(vib)   ...       0.02
freq.    1010.56  E(vib)   ...       0.02
freq.    1021.63  E(vib)   ...       0.02
freq.    1028.97  E(vib)   ...       0.02
freq.    1032.07  E(vib)   ...       0.02
freq.    1043.74  E(vib)   ...       0.02
freq.    1056.09  E(vib)   ...       0.02
freq.    1063.50  E(vib)   ...       0.02
freq.    1071.88  E(vib)   ...       0.02
freq.    1073.52  E(vib)   ...       0.02
freq.    1085.35  E(vib)   ...       0.02
freq.    1092.21  E(vib)   ...       0.02
freq.    1095.93  E(vib)   ...       0.02
freq.    1102.16  E(vib)   ...       0.02
freq.    1114.30  E(vib)   ...       0.01
freq.    1123.73  E(vib)   ...       0.01
freq.    1124.58  E(vib)   ...       0.01
freq.    1131.33  E(vib)   ...       0.01
freq.    1138.25  E(vib)   ...       0.01
freq.    1141.91  E(vib)   ...       0.01
freq.    1148.14  E(vib)   ...       0.01
freq.    1152.46  E(vib)   ...       0.01
freq.    1156.19  E(vib)   ...       0.01
freq.    1165.32  E(vib)   ...       0.01
freq.    1177.24  E(vib)   ...       0.01
freq.    1188.77  E(vib)   ...       0.01
freq.    1192.46  E(vib)   ...       0.01
freq.    1199.76  E(vib)   ...       0.01
freq.    1209.59  E(vib)   ...       0.01
freq.    1215.12  E(vib)   ...       0.01
freq.    1225.62  E(vib)   ...       0.01
freq.    1229.55  E(vib)   ...       0.01
freq.    1240.47  E(vib)   ...       0.01
freq.    1247.11  E(vib)   ...       0.01
freq.    1252.78  E(vib)   ...       0.01
freq.    1267.38  E(vib)   ...       0.01
freq.    1268.42  E(vib)   ...       0.01
freq.    1278.11  E(vib)   ...       0.01
freq.    1283.87  E(vib)   ...       0.01
freq.    1290.89  E(vib)   ...       0.01
freq.    1301.25  E(vib)   ...       0.01
freq.    1307.20  E(vib)   ...       0.01
freq.    1313.31  E(vib)   ...       0.01
freq.    1325.26  E(vib)   ...       0.01
freq.    1327.06  E(vib)   ...       0.01
freq.    1332.25  E(vib)   ...       0.01
freq.    1336.35  E(vib)   ...       0.01
freq.    1343.63  E(vib)   ...       0.01
freq.    1346.34  E(vib)   ...       0.01
freq.    1351.03  E(vib)   ...       0.01
freq.    1351.72  E(vib)   ...       0.01
freq.    1359.41  E(vib)   ...       0.01
freq.    1455.53  E(vib)   ...       0.00
freq.    1462.59  E(vib)   ...       0.00
freq.    1796.28  E(vib)   ...       0.00
freq.    2586.15  E(vib)   ...       0.00
freq.    2859.80  E(vib)   ...       0.00
freq.    2865.16  E(vib)   ...       0.00

Rotational constants in cm-1:     0.005000     0.003931     0.002519

                             ****ORCA TERMINATED NORMALLY****
TOTAL RUN TIME: 0 days 0 hours 15 minutes 18 seconds 345 msec
