                         Program Version 5.0.3 -  RELEASE  -
|  1> ! XTB2 opt numfreq
|  2> * XYZ 0 1
|  3> O 2.9777 -0.4624 -2.1009
|  4> C 2.5655 0.1315 -1.1075
|  5> O 3.3753 1.0037 -0.4442
|  6> C 3.0262 1.3965 0.9059
|  7> C 4.2952 1.9419 1.5739
|  8> O 4.7026 3.1173 0.8855
|  9> P 6.1560 3.1596 0.2113
| 10> O 6.5119 4.4041 -0.5281
| 11> O 6.2458 1.8370 -0.6799
| 12> O 7.1646 2.8336 1.4090
| 13> C 2.4938 0.1772 1.6578
| 14> O 2.1453 0.4677 3.0131
| 15> C 1.2853 -0.4631 0.9412
| 16> O 1.3775 -1.8874 1.0992
| 17> C 1.1530 -0.0310 -0.5344
| 18> O 0.5345 1.2830 -0.5494
| 19> C 0.2771 -0.9606 -1.4508
| 20> O 0.9305 -2.1530 -1.8700
| 21> O -0.0035 -0.2219 -2.6427
| 22> C -1.0785 -1.3774 -0.7568
| 23> O -0.9132 -2.5683 0.0341
| 24> C -2.2315 -1.6558 -1.7497
| 25> O -1.7542 -2.4401 -2.8680
| 26> C -3.4327 -2.4198 -1.1522
| 27> O -4.4597 -2.5134 -2.1647
| 28> C -4.0556 -1.8096 0.1142
| 29> O -5.0934 -2.7005 0.5689
| 30> C -4.6797 -0.4287 -0.1185
| 31> O -5.0016 0.1557 1.1401
| 32> P -4.3930 1.6036 1.4481
| 33> O -2.9062 1.7299 1.3980
| 34> O -5.1954 2.5567 0.4490
| 35> O -5.0577 1.9694 2.8493
| 36> H 2.2953 2.2122 0.8596
| 37> H 4.1061 2.2174 2.6173
| 38> H 5.0917 1.1871 1.5569
| 39> H 5.7949 1.9499 -1.5408
| 40> H 8.0787 3.0634 1.1514
| 41> H 3.2946 -0.5734 1.7095
| 42> H 1.4858 1.1865 3.0192
| 43> H 0.3693 -0.1660 1.4704
| 44> H 1.4473 -2.0558 2.0624
| 45> H 0.2923 1.4415 -1.4892
| 46> H 1.8016 -1.8843 -2.2310
| 47> H -0.4532 -0.8668 -3.2283
| 48> H -1.4130 -0.5791 -0.0841
| 49> H 0.0494 -2.6580 0.2429
| 50> H -2.5742 -0.7138 -2.1921
| 51> H -1.1776 -3.1396 -2.4850
| 52> H -3.1513 -3.4601 -0.9507
| 53> H -3.9918 -2.8083 -2.9754
| 54> H -3.3226 -1.7590 0.9261
| 55> H -5.6387 -2.8834 -0.2210
| 56> H -5.6140 -0.5072 -0.6847
| 57> H -3.9997 0.2281 -0.6670
| 58> H -5.0085 3.5056 0.5925
| 59> H -4.7243 1.3876 3.5604
| 60> *
| 61>
| 62>                          ****END OF INPUT****
FINAL SINGLE POINT ENERGY      -120.535472035820
FINAL SINGLE POINT ENERGY      -120.552238884270
FINAL SINGLE POINT ENERGY      -120.556764070290
FINAL SINGLE POINT ENERGY      -120.560423479790
FINAL SINGLE POINT ENERGY      -120.562082616590
FINAL SINGLE POINT ENERGY      -120.563366511540
FINAL SINGLE POINT ENERGY      -120.564463746750
FINAL SINGLE POINT ENERGY      -120.565529474180
FINAL SINGLE POINT ENERGY      -120.566573606740
FINAL SINGLE POINT ENERGY      -120.567528405690
FINAL SINGLE POINT ENERGY      -120.578599801930
FINAL SINGLE POINT ENERGY      -120.578783875590
FINAL SINGLE POINT ENERGY      -120.578891704250
FINAL SINGLE POINT ENERGY      -120.578921272980
FINAL SINGLE POINT ENERGY      -120.578940289330
FINAL SINGLE POINT ENERGY      -120.578950318640
FINAL SINGLE POINT ENERGY      -120.578955190100
FINAL SINGLE POINT ENERGY      -120.578957451590
FINAL SINGLE POINT ENERGY      -120.578958491850
                    ***********************HURRAY********************

CARTESIAN COORDINATES (ANGSTROEM)
---------------------------------
  O     3.084106   -0.745801   -1.813580
  C     2.534627   -0.025299   -1.017309
  O     3.222186    0.879365   -0.343195
  C     2.571552    1.666285    0.653975
  C     3.675859    2.420086    1.395296
  O     4.357590    3.252363    0.482069
  P     5.846285    2.901417    0.025926
  O     6.268864    3.646182   -1.152217
  O     5.956290    1.310754   -0.051264
  O     6.702925    3.168002    1.346856
  C     1.726537    0.796094    1.615655
  O     0.822562    1.600401    2.311026
  C     1.047751   -0.373533    0.864502
  O     1.728232   -1.593099    1.048394
  C     1.045107   -0.104157   -0.656665
  O     0.391949    1.115572   -0.903571
  C     0.318746   -1.207729   -1.485884
  O     0.990467   -2.419451   -1.538321
  O     0.182011   -0.653128   -2.769430
  C    -1.067735   -1.465020   -0.832001
  O    -0.978393   -2.502248    0.111841
  C    -2.163319   -1.786003   -1.865072
  O    -1.769871   -2.807070   -2.754703
  C    -3.476975   -2.172893   -1.152160
  O    -4.561266   -2.137622   -2.055309
  C    -3.821769   -1.255988    0.030889
  O    -4.969064   -1.707774    0.709438
  C    -4.015312    0.204398   -0.396459
  O    -4.312380    1.017092    0.721594
  P    -3.298161    0.961503    1.966357
  O    -1.876650    0.887317    1.585611
  O    -3.689940    2.264545    2.767154
  O    -3.816224   -0.180822    2.921439
  H     1.914612    2.394714    0.167373
  H     3.218020    3.048788    2.162619
  H     4.368483    1.712122    1.856372
  H     5.494425    0.954284   -0.810967
  H     7.550325    3.528698    1.093687
  H     2.410808    0.358349    2.358942
  H    -0.073826    1.500609    1.943564
  H     0.016319   -0.438923    1.229751
  H     1.594280   -1.890003    1.955644
  H     0.195400    1.145052   -1.852181
  H     1.915599   -2.239704   -1.787572
  H    -0.154598   -1.347468   -3.355394
  H    -1.358371   -0.537545   -0.327188
  H    -0.109256   -2.921018   -0.002475
  H    -2.353405   -0.906965   -2.489809
  H    -1.362436   -3.513956   -2.235801
  H    -3.359676   -3.191501   -0.748544
  H    -4.285288   -2.588867   -2.862350
  H    -3.012718   -1.320516    0.761287
  H    -5.662382   -1.838473    0.048130
  H    -4.871918    0.288950   -1.070099
  H    -3.117505    0.583641   -0.889020
  H    -3.106286    2.991092    2.553682
  H    -4.507198   -0.725201    2.529567

FINAL SINGLE POINT ENERGY      -120.578959380970

VIBRATIONAL FREQUENCIES
-----------------------

Scaling factor for frequencies =  1.000000000 (already applied!)

   0:         0.00 cm**-1
   1:         0.00 cm**-1
   2:         0.00 cm**-1
   3:         0.00 cm**-1
   4:         0.00 cm**-1
   5:         0.00 cm**-1
   6:         7.10 cm**-1
   7:        14.77 cm**-1
   8:        24.85 cm**-1
   9:        31.03 cm**-1
  10:        40.11 cm**-1
  11:        43.55 cm**-1
  12:        54.33 cm**-1
  13:        60.55 cm**-1
  14:        68.61 cm**-1
  15:        75.91 cm**-1
  16:        86.02 cm**-1
  17:        95.00 cm**-1
  18:       104.48 cm**-1
  19:       108.00 cm**-1
  20:       120.44 cm**-1
  21:       126.89 cm**-1
  22:       139.20 cm**-1
  23:       144.66 cm**-1
  24:       155.24 cm**-1
  25:       162.29 cm**-1
  26:       171.83 cm**-1
  27:       181.28 cm**-1
  28:       198.99 cm**-1
  29:       201.14 cm**-1
  30:       210.01 cm**-1
  31:       214.13 cm**-1
  32:       228.51 cm**-1
  33:       235.45 cm**-1
  34:       243.90 cm**-1
  35:       252.55 cm**-1
  36:       260.35 cm**-1
  37:       268.48 cm**-1
  38:       275.96 cm**-1
  39:       281.90 cm**-1
  40:       295.09 cm**-1
  41:       304.56 cm**-1
  42:       333.95 cm**-1
  43:       335.90 cm**-1
  44:       343.58 cm**-1
  45:       350.62 cm**-1
  46:       351.52 cm**-1
  47:       358.60 cm**-1
  48:       363.55 cm**-1
  49:       373.28 cm**-1
  50:       377.75 cm**-1
  51:       383.54 cm**-1
  52:       395.69 cm**-1
  53:       403.70 cm**-1
  54:       404.81 cm**-1
  55:       407.46 cm**-1
  56:       418.22 cm**-1
  57:       428.32 cm**-1
  58:       430.97 cm**-1
  59:       446.64 cm**-1
  60:       449.81 cm**-1
  61:       457.34 cm**-1
  62:       460.20 cm**-1
  63:       470.30 cm**-1
  64:       473.83 cm**-1
  65:       478.28 cm**-1
  66:       506.15 cm**-1
  67:       518.67 cm**-1
  68:       531.52 cm**-1
  69:       540.04 cm**-1
  70:       545.09 cm**-1
  71:       556.36 cm**-1
  72:       590.19 cm**-1
  73:       606.88 cm**-1
  74:       629.57 cm**-1
  75:       670.87 cm**-1
  76:       697.47 cm**-1
  77:       715.26 cm**-1
  78:       743.23 cm**-1
  79:       759.61 cm**-1
  80:       762.90 cm**-1
  81:       797.07 cm**-1
  82:       811.12 cm**-1
  83:       832.88 cm**-1
  84:       833.55 cm**-1
  85:       862.70 cm**-1
  86:       883.79 cm**-1
  87:       890.33 cm**-1
  88:       890.49 cm**-1
  89:       904.36 cm**-1
  90:       918.16 cm**-1
  91:       919.34 cm**-1
  92:       941.46 cm**-1
  93:       953.53 cm**-1
  94:       969.19 cm**-1
  95:       983.00 cm**-1
  96:      1026.98 cm**-1
  97:      1038.16 cm**-1
  98:      1046.17 cm**-1
  99:      1059.88 cm**-1
 100:      1073.37 cm**-1
 101:      1078.01 cm**-1
 102:      1082.72 cm**-1
 103:      1089.21 cm**-1
 104:      1093.31 cm**-1
 105:      1101.03 cm**-1
 106:      1106.72 cm**-1
 107:      1107.75 cm**-1
 108:      1116.96 cm**-1
 109:      1123.84 cm**-1
 110:      1127.57 cm**-1
 111:      1133.75 cm**-1
 112:      1140.62 cm**-1
 113:      1150.92 cm**-1
 114:      1172.59 cm**-1
 115:      1193.09 cm**-1
 116:      1197.49 cm**-1
 117:      1201.85 cm**-1
 118:      1203.00 cm**-1
 119:      1218.78 cm**-1
 120:      1222.15 cm**-1
 121:      1231.85 cm**-1
 122:      1234.49 cm**-1
 123:      1236.59 cm**-1
 124:      1244.37 cm**-1
 125:      1252.32 cm**-1
 126:      1263.53 cm**-1
 127:      1277.76 cm**-1
 128:      1281.51 cm**-1
 129:      1284.31 cm**-1
 130:      1292.49 cm**-1
 131:      1296.15 cm**-1
 132:      1301.69 cm**-1
 133:      1316.30 cm**-1
 134:      1319.34 cm**-1
 135:      1323.12 cm**-1
 136:      1326.49 cm**-1
 137:      1328.52 cm**-1
 138:      1332.93 cm**-1
 139:      1341.46 cm**-1
 140:      1355.59 cm**-1
 141:      1366.66 cm**-1
 142:      1371.25 cm**-1
 143:      1390.34 cm**-1
 144:      1436.05 cm**-1
 145:      1450.21 cm**-1
 146:      1755.33 cm**-1
 147:      2867.28 cm**-1
 148:      2874.22 cm**-1
 149:      2933.45 cm**-1
 150:      2945.24 cm**-1
 151:      2948.50 cm**-1
 152:      2956.02 cm**-1
 153:      2960.97 cm**-1
 154:      2963.00 cm**-1
 155:      2969.07 cm**-1
 156:      2969.53 cm**-1
 157:      2996.24 cm**-1
 158:      3327.99 cm**-1
 159:      3350.83 cm**-1
 160:      3400.91 cm**-1
 161:      3449.81 cm**-1
 162:      3458.93 cm**-1
 163:      3473.85 cm**-1
 164:      3497.28 cm**-1
 165:      3498.97 cm**-1
 166:      3525.88 cm**-1
 167:      3543.13 cm**-1
 168:      3591.83 cm**-1
 169:      3620.83 cm**-1
 170:      3640.30 cm**-1

IR SPECTRUM
-----------

 Mode   freq       eps      Int      T**2         TX        TY        TZ
       cm**-1   L/(mol*cm) km/mol    a.u.
----------------------------------------------------------------------------
  6:      7.10   0.001589    8.03  0.069842  ( 0.201995 -0.164652 -0.043930)
  7:     14.77   0.000384    1.94  0.008115  (-0.016729  0.081148 -0.035351)
  8:     24.85   0.000293    1.48  0.003683  (-0.027226 -0.004976 -0.054014)
  9:     31.03   0.000530    2.68  0.005331  ( 0.072447  0.005790 -0.007020)
 10:     40.11   0.000852    4.31  0.006628  ( 0.065510 -0.041222 -0.025250)
 11:     43.55   0.000272    1.37  0.001949  ( 0.036423 -0.007004 -0.023937)
 12:     54.33   0.001403    7.09  0.008058  ( 0.027232  0.050930 -0.068720)
 13:     60.55   0.000428    2.16  0.002208  (-0.038254 -0.011764 -0.024619)
 14:     68.61   0.000561    2.83  0.002551  (-0.003568  0.042956  0.026316)
 15:     75.91   0.000351    1.77  0.001443  ( 0.027127 -0.008719 -0.025121)
 16:     86.02   0.000664    3.36  0.002409  (-0.016027  0.045752  0.007677)
 17:     95.00   0.000616    3.11  0.002024  ( 0.039240  0.019057  0.010983)
 18:    104.48   0.000575    2.91  0.001719  (-0.039253  0.009002 -0.009831)
 19:    108.00   0.000025    0.12  0.000071  (-0.004341 -0.006460  0.003216)
 20:    120.44   0.001710    8.64  0.004431  (-0.032923  0.057110  0.009273)
 21:    126.89   0.004064   20.54  0.009996  (-0.072008  0.069291 -0.003041)
 22:    139.20   0.015484   78.25  0.034714  ( 0.088263 -0.155903 -0.051165)
 23:    144.66   0.003642   18.40  0.007856  ( 0.052558 -0.070870 -0.008409)
 24:    155.24   0.001272    6.43  0.002557  ( 0.049270  0.011379 -0.000347)
 25:    162.29   0.000175    0.89  0.000337  ( 0.002268 -0.010901 -0.014605)
 26:    171.83   0.000554    2.80  0.001006  (-0.030237  0.009484  0.001474)
 27:    181.28   0.008425   42.58  0.014502  ( 0.112924  0.019974  0.036763)
 28:    198.99   0.008044   40.65  0.012615  (-0.005788 -0.111453 -0.012658)
 29:    201.14   0.005323   26.90  0.008259  ( 0.088060  0.002561  0.022305)
 30:    210.01   0.002047   10.35  0.003042  (-0.036452  0.037654  0.017197)
 31:    214.13   0.002983   15.08  0.004348  (-0.043097  0.001522 -0.049881)
 32:    228.51   0.001413    7.14  0.001930  ( 0.027379 -0.013539  0.031570)
 33:    235.45   0.009460   47.81  0.012539  ( 0.064043 -0.030470  0.086655)
 34:    243.90   0.002326   11.76  0.002977  (-0.023812 -0.039652  0.028936)
 35:    252.55   0.064813  327.54  0.080085  ( 0.234454  0.148300  0.055884)
 36:    260.35   0.003736   18.88  0.004478  (-0.065267 -0.009577 -0.011247)
 37:    268.48   0.007213   36.45  0.008384  (-0.051466 -0.021769 -0.072538)
 38:    275.96   0.014516   73.36  0.016415  (-0.079741 -0.046380  0.088914)
 39:    281.90   0.002915   14.73  0.003227  (-0.033381  0.000923  0.045957)
 40:    295.09   0.005007   25.31  0.005295  (-0.048168  0.054435 -0.003485)
 41:    304.56   0.015802   79.86  0.016191  (-0.102005  0.068644  0.032778)
 42:    333.95   0.003171   16.02  0.002963  ( 0.031844  0.032742  0.029610)
 43:    335.90   0.005086   25.70  0.004725  (-0.054512 -0.041859  0.000995)
 44:    343.58   0.004861   24.56  0.004415  ( 0.031212  0.002976 -0.058583)
 45:    350.62   0.009897   50.01  0.008808  ( 0.092675 -0.003374 -0.014433)
 46:    351.52   0.006191   31.29  0.005496  (-0.047138  0.016718  0.054726)
 47:    358.60   0.003871   19.56  0.003368  (-0.005289 -0.017045 -0.055225)
 48:    363.55   0.000226    1.14  0.000194  ( 0.002260 -0.006345 -0.012201)
 49:    373.28   0.002841   14.36  0.002375  ( 0.016964  0.039433 -0.023076)
 50:    377.75   0.002713   13.71  0.002241  ( 0.020618 -0.025571 -0.034094)
 51:    383.54   0.032128  162.36  0.026141  ( 0.123914  0.064684 -0.081254)
 52:    395.69   0.008284   41.86  0.006533  ( 0.080678  0.004691 -0.001495)
 53:    403.70   0.023051  116.49  0.017819  ( 0.087669  0.081105  0.059622)
 54:    404.81   0.001376    6.95  0.001060  (-0.019158  0.025017 -0.008218)
 55:    407.46   0.017945   90.69  0.013744  ( 0.091701 -0.063673 -0.035783)
 56:    418.22   0.014861   75.10  0.011088  (-0.069043 -0.070808  0.036162)
 57:    428.32   0.003639   18.39  0.002651  (-0.017361  0.027581 -0.039860)
 58:    430.97   0.015570   78.68  0.011274  ( 0.090107 -0.046086 -0.032107)
 59:    446.64   0.002519   12.73  0.001760  ( 0.027341 -0.007408 -0.030944)
 60:    449.81   0.015074   76.18  0.010458  (-0.059151  0.075992  0.034417)
 61:    457.34   0.076129  384.73  0.051947  (-0.104419 -0.201551 -0.020517)
 62:    460.20   0.003662   18.51  0.002483  (-0.043973  0.014293  0.018589)
 63:    470.30   0.039578  200.01  0.026262  (-0.155621 -0.018463  0.041266)
 64:    473.83   0.020850  105.37  0.013732  ( 0.033501  0.091079 -0.065684)
 65:    478.28   0.001185    5.99  0.000773  (-0.017178 -0.021856 -0.000637)
 66:    506.15   0.006986   35.30  0.004307  ( 0.057690  0.018654 -0.025116)
 67:    518.67   0.006982   35.28  0.004201  (-0.023338 -0.016697 -0.058115)
 68:    531.52   0.017426   88.06  0.010231  ( 0.059976  0.078584  0.021409)
 69:    540.04   0.004223   21.34  0.002440  ( 0.018333 -0.038423 -0.025061)
 70:    545.09   0.002333   11.79  0.001336  ( 0.004970 -0.033827 -0.012913)
 71:    556.36   0.003430   17.33  0.001924  ( 0.024220 -0.035650  0.008150)
 72:    590.19   0.012665   64.01  0.006697  ( 0.021176  0.029157 -0.073473)
 73:    606.88   0.015741   79.55  0.008094  ( 0.046793 -0.035749 -0.068020)
 74:    629.57   0.020315  102.66  0.010070  ( 0.002025 -0.061090 -0.079585)
 75:    670.87   0.005686   28.73  0.002645  (-0.024947  0.044448 -0.006847)
 76:    697.47   0.014445   73.00  0.006463  ( 0.054778  0.014878  0.056930)
 77:    715.26   0.000066    0.33  0.000029  ( 0.003961  0.003598 -0.000048)
 78:    743.23   0.025520  128.97  0.010715  ( 0.080574 -0.002212  0.064949)
 79:    759.61   0.013279   67.10  0.005455  (-0.070675 -0.003599  0.021147)
 80:    762.90   0.001111    5.62  0.000455  (-0.018288 -0.006778 -0.008611)
 81:    797.07   0.003146   15.90  0.001232  ( 0.003751  0.033801 -0.008665)
 82:    811.12   0.038232  193.21  0.014709  (-0.118512  0.019838 -0.016447)
 83:    832.88   0.008687   43.90  0.003255  (-0.015955  0.023411 -0.049521)
 84:    833.55   0.069239  349.91  0.025922  ( 0.036585  0.130042  0.087592)
 85:    862.70   0.004881   24.66  0.001765  (-0.016918 -0.022844 -0.030941)
 86:    883.79   0.052015  262.86  0.018366  ( 0.004549 -0.134648 -0.014679)
 87:    890.33   0.028827  145.68  0.010104  ( 0.020661 -0.098275  0.004363)
 88:    890.49   0.032672  165.11  0.011450  ( 0.080377 -0.058204 -0.040017)
 89:    904.36   0.014902   75.31  0.005142  ( 0.052064 -0.047609 -0.012844)
 90:    918.16   0.049501  250.16  0.016824  ( 0.103466 -0.029227  0.072560)
 91:    919.34   0.015886   80.28  0.005392  (-0.013268  0.012896 -0.071063)
 92:    941.46   0.025832  130.55  0.008563  ( 0.014049 -0.003229  0.091404)
 93:    953.53   0.080424  406.43  0.026321  ( 0.015360  0.028840 -0.158912)
 94:    969.19   0.003852   19.47  0.001240  ( 0.007674 -0.006531  0.033745)
 95:    983.00   0.007605   38.43  0.002414  ( 0.018993 -0.001874 -0.045277)
 96:   1026.98   0.006888   34.81  0.002093  (-0.008137 -0.017710 -0.041392)
 97:   1038.16   0.004969   25.11  0.001494  (-0.016562 -0.013056  0.032389)
 98:   1046.17   0.001680    8.49  0.000501  (-0.011696 -0.017165  0.008354)
 99:   1059.88   0.006197   31.32  0.001825  ( 0.005114  0.001752  0.042371)
100:   1073.37   0.030991  156.62  0.009010  (-0.063726 -0.022847  0.066537)
101:   1078.01   0.012972   65.55  0.003755  (-0.032329 -0.051877 -0.004324)
102:   1082.72   0.020262  102.39  0.005840  ( 0.038083 -0.047651 -0.046031)
103:   1089.21   0.002303   11.64  0.000660  (-0.008846  0.009807  0.022031)
104:   1093.31   0.024920  125.93  0.007113  (-0.072773 -0.035524  0.023558)
105:   1101.03   0.005834   29.48  0.001653  ( 0.006938  0.012036 -0.038215)
106:   1106.72   0.022754  114.99  0.006416  (-0.039856  0.015111  0.067818)
107:   1107.75   0.005505   27.82  0.001551  (-0.006166 -0.008678 -0.037914)
108:   1116.96   0.026081  131.80  0.007287  (-0.009745  0.055386 -0.064220)
109:   1123.84   0.028862  145.85  0.008014  (-0.037692  0.075207  0.030617)
110:   1127.57   0.015836   80.03  0.004383  ( 0.037883 -0.028718 -0.046076)
111:   1133.75   0.037476  189.39  0.010315  ( 0.073703 -0.013652  0.068533)
112:   1140.62   0.006197   31.31  0.001695  (-0.010058  0.038437 -0.010806)
113:   1150.92   0.010887   55.02  0.002952  ( 0.015780 -0.049814  0.014887)
114:   1172.59   0.007731   39.07  0.002057  (-0.039826  0.021497  0.003018)
115:   1193.09   0.003706   18.73  0.000969  ( 0.000170 -0.028688  0.012098)
116:   1197.49   0.021753  109.93  0.005669  ( 0.024629  0.064076  0.030925)
117:   1201.85   0.059581  301.10  0.015470  ( 0.007017  0.091622  0.083825)
118:   1203.00   0.016451   83.14  0.004268  ( 0.028564  0.057518 -0.011972)
119:   1218.78   0.022478  113.60  0.005755  ( 0.065410 -0.037350 -0.009056)
120:   1222.15   0.110387  557.85  0.028186  (-0.164240  0.004037  0.034570)
121:   1231.85   0.015765   79.67  0.003994  ( 0.057311  0.019275  0.018372)
122:   1234.49   0.018293   92.45  0.004624  (-0.004607  0.039435  0.055208)
123:   1236.59   0.000887    4.48  0.000224  ( 0.004944 -0.013901  0.002493)
124:   1244.37   0.000509    2.57  0.000128  ( 0.000790 -0.010010  0.005172)
125:   1252.32   0.010216   51.63  0.002546  ( 0.035924  0.030763 -0.017575)
126:   1263.53   0.002974   15.03  0.000734  (-0.027075  0.001007  0.000545)
127:   1277.76   0.051417  259.84  0.012557  ( 0.006963  0.111740 -0.004799)
128:   1281.51   0.006154   31.10  0.001499  (-0.038008 -0.006786 -0.002804)
129:   1284.31   0.029513  149.15  0.007171  ( 0.023983  0.076503 -0.027262)
130:   1292.49   0.060286  304.66  0.014556  (-0.033365 -0.064484  0.096354)
131:   1296.15   0.010316   52.14  0.002484  (-0.003229  0.024670 -0.043183)
132:   1301.69   0.007280   36.79  0.001745  ( 0.000126  0.017331 -0.038011)
133:   1316.30   0.007388   37.33  0.001751  ( 0.001112  0.041804  0.001626)
134:   1319.34   0.008092   40.89  0.001914  ( 0.032998 -0.012116 -0.026043)
135:   1323.12   0.002277   11.51  0.000537  (-0.015672 -0.012532  0.011592)
136:   1326.49   0.002162   10.93  0.000509  (-0.007672  0.021192  0.000840)
137:   1328.52   0.002195   11.09  0.000516  ( 0.015540 -0.010697 -0.012637)
138:   1332.93   0.011581   58.53  0.002711  (-0.032051  0.005604  0.040653)
139:   1341.46   0.004359   22.03  0.001014  ( 0.016776  0.006020 -0.026389)
140:   1355.59   0.015557   78.62  0.003581  (-0.007292 -0.013689 -0.057800)
141:   1366.66   0.003814   19.28  0.000871  (-0.018297  0.006817  0.022129)
142:   1371.25   0.012740   64.38  0.002899  ( 0.001823  0.049812  0.020367)
143:   1390.34   0.010818   54.67  0.002428  ( 0.008269  0.016932 -0.045531)
144:   1436.05   0.002054   10.38  0.000446  (-0.006707 -0.000691 -0.020023)
145:   1450.21   0.000158    0.80  0.000034  (-0.001389 -0.000724 -0.005613)
146:   1755.33   0.092723  468.58  0.016484  (-0.045566  0.077604  0.091573)
147:   2867.28   0.011035   55.76  0.001201  ( 0.000489  0.028073 -0.020313)
148:   2874.22   0.012695   64.15  0.001378  ( 0.026927 -0.002563  0.025429)
149:   2933.45   0.002104   10.63  0.000224  ( 0.008519 -0.001125 -0.012247)
150:   2945.24   0.000404    2.04  0.000043  (-0.001562 -0.001265 -0.006226)
151:   2948.50   0.000338    1.71  0.000036  ( 0.005620  0.000620 -0.001943)
152:   2956.02   0.006078   30.72  0.000642  (-0.015360  0.019198 -0.006100)
153:   2960.97   0.013857   70.03  0.001460  ( 0.020846  0.012914 -0.029310)
154:   2963.00   0.004115   20.80  0.000433  (-0.001987 -0.003657  0.020398)
155:   2969.07   0.004770   24.11  0.000501  ( 0.004117 -0.003123  0.021788)
156:   2969.53   0.006598   33.34  0.000693  ( 0.008711 -0.003022 -0.024664)
157:   2996.24   0.007583   38.32  0.000790  (-0.013961  0.000182 -0.024389)
158:   3327.99   0.046763  236.32  0.004385  ( 0.057860  0.032203  0.000212)
159:   3350.83   0.073047  369.15  0.006803  ( 0.079902  0.019769  0.005265)
160:   3400.91   0.025136  127.03  0.002306  ( 0.039839 -0.016478 -0.021162)
161:   3449.81   0.020881  105.52  0.001889  (-0.014513 -0.010242 -0.039665)
162:   3458.93   0.008572   43.32  0.000773  ( 0.005393  0.027258 -0.001150)
163:   3473.85   0.034374  173.71  0.003088  ( 0.041542  0.034984  0.011759)
164:   3497.28   0.003617   18.28  0.000323  (-0.014722  0.008247 -0.006167)
165:   3498.97   0.008699   43.96  0.000776  (-0.018115 -0.006118 -0.020255)
166:   3525.88   0.009166   46.32  0.000811  ( 0.007988 -0.008990 -0.025819)
167:   3543.13   0.001343    6.79  0.000118  (-0.007155 -0.001941  0.007958)
168:   3591.83   0.014203   71.77  0.001234  (-0.018292 -0.018770 -0.023389)
169:   3620.83   0.011885   60.06  0.001024  (-0.016259 -0.026106 -0.008856)
170:   3640.30   0.022533  113.87  0.001932  ( 0.038350  0.020670  0.005804)

--------------------------
THERMOCHEMISTRY AT 298.15K
--------------------------

Temperature         ... 298.15 K
Pressure            ... 1.00 atm
Total Mass          ... 534.25 AMU

Throughout the following assumptions are being made:
  (1) The electronic state is orbitally nondegenerate
  (2) There are no thermally accessible electronically excited states
  (3) Hindered rotations indicated by low frequency modes are not
      treated as such but are treated as vibrations and this may
      cause some error
  (4) All equations used are the standard statistical mechanics
      equations for an ideal gas
  (5) All vibrations are strictly harmonic

freq.       7.10  E(vib)   ...       0.58
freq.      14.77  E(vib)   ...       0.57
freq.      24.85  E(vib)   ...       0.56
freq.      31.03  E(vib)   ...       0.55
freq.      40.11  E(vib)   ...       0.54
freq.      43.55  E(vib)   ...       0.53
freq.      54.33  E(vib)   ...       0.52
freq.      60.55  E(vib)   ...       0.51
freq.      68.61  E(vib)   ...       0.50
freq.      75.91  E(vib)   ...       0.49
freq.      86.02  E(vib)   ...       0.48
freq.      95.00  E(vib)   ...       0.47
freq.     104.48  E(vib)   ...       0.46
freq.     108.00  E(vib)   ...       0.45
freq.     120.44  E(vib)   ...       0.44
freq.     126.89  E(vib)   ...       0.43
freq.     139.20  E(vib)   ...       0.42
freq.     144.66  E(vib)   ...       0.41
freq.     155.24  E(vib)   ...       0.40
freq.     162.29  E(vib)   ...       0.39
freq.     171.83  E(vib)   ...       0.38
freq.     181.28  E(vib)   ...       0.37
freq.     198.99  E(vib)   ...       0.35
freq.     201.14  E(vib)   ...       0.35
freq.     210.01  E(vib)   ...       0.34
freq.     214.13  E(vib)   ...       0.34
freq.     228.51  E(vib)   ...       0.32
freq.     235.45  E(vib)   ...       0.32
freq.     243.90  E(vib)   ...       0.31
freq.     252.55  E(vib)   ...       0.30
freq.     260.35  E(vib)   ...       0.30
freq.     268.48  E(vib)   ...       0.29
freq.     275.96  E(vib)   ...       0.28
freq.     281.90  E(vib)   ...       0.28
freq.     295.09  E(vib)   ...       0.27
freq.     304.56  E(vib)   ...       0.26
freq.     333.95  E(vib)   ...       0.24
freq.     335.90  E(vib)   ...       0.24
freq.     343.58  E(vib)   ...       0.23
freq.     350.62  E(vib)   ...       0.23
freq.     351.52  E(vib)   ...       0.23
freq.     358.60  E(vib)   ...       0.22
freq.     363.55  E(vib)   ...       0.22
freq.     373.28  E(vib)   ...       0.21
freq.     377.75  E(vib)   ...       0.21
freq.     383.54  E(vib)   ...       0.20
freq.     395.69  E(vib)   ...       0.20
freq.     403.70  E(vib)   ...       0.19
freq.     404.81  E(vib)   ...       0.19
freq.     407.46  E(vib)   ...       0.19
freq.     418.22  E(vib)   ...       0.18
freq.     428.32  E(vib)   ...       0.18
freq.     430.97  E(vib)   ...       0.18
freq.     446.64  E(vib)   ...       0.17
freq.     449.81  E(vib)   ...       0.17
freq.     457.34  E(vib)   ...       0.16
freq.     460.20  E(vib)   ...       0.16
freq.     470.30  E(vib)   ...       0.16
freq.     473.83  E(vib)   ...       0.15
freq.     478.28  E(vib)   ...       0.15
freq.     506.15  E(vib)   ...       0.14
freq.     518.67  E(vib)   ...       0.13
freq.     531.52  E(vib)   ...       0.13
freq.     540.04  E(vib)   ...       0.12
freq.     545.09  E(vib)   ...       0.12
freq.     556.36  E(vib)   ...       0.12
freq.     590.19  E(vib)   ...       0.10
freq.     606.88  E(vib)   ...       0.10
freq.     629.57  E(vib)   ...       0.09
freq.     670.87  E(vib)   ...       0.08
freq.     697.47  E(vib)   ...       0.07
freq.     715.26  E(vib)   ...       0.07
freq.     743.23  E(vib)   ...       0.06
freq.     759.61  E(vib)   ...       0.06
freq.     762.90  E(vib)   ...       0.06
freq.     797.07  E(vib)   ...       0.05
freq.     811.12  E(vib)   ...       0.05
freq.     832.88  E(vib)   ...       0.04
freq.     833.55  E(vib)   ...       0.04
freq.     862.70  E(vib)   ...       0.04
freq.     883.79  E(vib)   ...       0.04
freq.     890.33  E(vib)   ...       0.04
freq.     890.49  E(vib)   ...       0.04
freq.     904.36  E(vib)   ...       0.03
freq.     918.16  E(vib)   ...       0.03
freq.     919.34  E(vib)   ...       0.03
freq.     941.46  E(vib)   ...       0.03
freq.     953.53  E(vib)   ...       0.03
freq.     969.19  E(vib)   ...       0.03
freq.     983.00  E(vib)   ...       0.02
freq.    1026.98  E(vib)   ...       0.02
freq.    1038.16  E(vib)   ...       0.02
freq.    1046.17  E(vib)   ...       0.02
freq.    1059.88  E(vib)   ...       0.02
freq.    1073.37  E(vib)   ...       0.02
freq.    1078.01  E(vib)   ...       0.02
freq.    1082.72  E(vib)   ...       0.02
freq.    1089.21  E(vib)   ...       0.02
freq.    1093.31  E(vib)   ...       0.02
freq.    1101.03  E(vib)   ...       0.02
freq.    1106.72  E(vib)   ...       0.02
freq.    1107.75  E(vib)   ...       0.02
freq.    1116.96  E(vib)   ...       0.01
freq.    1123.84  E(vib)   ...       0.01
freq.    1127.57  E(vib)   ...       0.01
freq.    1133.75  E(vib)   ...       0.01
freq.    1140.62  E(vib)   ...       0.01
freq.    1150.92  E(vib)   ...       0.01
freq.    1172.59  E(vib)   ...       0.01
freq.    1193.09  E(vib)   ...       0.01
freq.    1197.49  E(vib)   ...       0.01
freq.    1201.85  E(vib)   ...       0.01
freq.    1203.00  E(vib)   ...       0.01
freq.    1218.78  E(vib)   ...       0.01
freq.    1222.15  E(vib)   ...       0.01
freq.    1231.85  E(vib)   ...       0.01
freq.    1234.49  E(vib)   ...       0.01
freq.    1236.59  E(vib)   ...       0.01
freq.    1244.37  E(vib)   ...       0.01
freq.    1252.32  E(vib)   ...       0.01
freq.    1263.53  E(vib)   ...       0.01
freq.    1277.76  E(vib)   ...       0.01
freq.    1281.51  E(vib)   ...       0.01
freq.    1284.31  E(vib)   ...       0.01
freq.    1292.49  E(vib)   ...       0.01
freq.    1296.15  E(vib)   ...       0.01
freq.    1301.69  E(vib)   ...       0.01
freq.    1316.30  E(vib)   ...       0.01
freq.    1319.34  E(vib)   ...       0.01
freq.    1323.12  E(vib)   ...       0.01
freq.    1326.49  E(vib)   ...       0.01
freq.    1328.52  E(vib)   ...       0.01
freq.    1332.93  E(vib)   ...       0.01
freq.    1341.46  E(vib)   ...       0.01
freq.    1355.59  E(vib)   ...       0.01
freq.    1366.66  E(vib)   ...       0.01
freq.    1371.25  E(vib)   ...       0.01
freq.    1390.34  E(vib)   ...       0.00
freq.    1436.05  E(vib)   ...       0.00
freq.    1450.21  E(vib)   ...       0.00
freq.    1755.33  E(vib)   ...       0.00
freq.    2867.28  E(vib)   ...       0.00
freq.    2874.22  E(vib)   ...       0.00
freq.    2933.45  E(vib)   ...       0.00

Rotational constants in cm-1:     0.006996     0.002115     0.001777

                             ****ORCA TERMINATED NORMALLY****
TOTAL RUN TIME: 0 days 0 hours 14 minutes 54 seconds 148 msec
