                         Program Version 5.0.3 -  RELEASE  -
|  1> ! XTB2 opt numfreq
|  2> * XYZ 0 1
|  3> O -0.7385 -2.0892 -1.2411
|  4> C -0.6858 -1.1507 -0.4332
|  5> C -1.8816 -0.8424 0.4431
|  6> C -2.9329 -0.0978 -0.3870
|  7> O -2.3701 1.1768 -0.7574
|  8> C -4.2463 0.1882 0.3678
|  9> O -3.9165 0.9321 1.5516
| 10> C -5.0457 -1.0685 0.7308
| 11> O -6.2131 -0.8325 1.4994
| 12> P -7.2719 0.3008 1.1224
| 13> O -8.6110 0.2095 1.7667
| 14> O -7.3360 0.3000 -0.4722
| 15> O -6.5208 1.6853 1.4627
| 16> C 0.5697 -0.2262 -0.3502
| 17> O 0.1499 1.0921 -0.0756
| 18> O 1.1985 -0.1968 -1.6184
| 19> C 1.5341 -0.7253 0.7746
| 20> O 0.7506 -1.1147 1.9360
| 21> C 2.4265 0.4331 1.2279
| 22> O 2.1494 1.1081 2.2218
| 23> O 3.5260 0.7080 0.4916
| 24> C 4.3311 -0.3608 -0.0617
| 25> C 5.1688 0.2301 -1.2003
| 26> O 6.0423 1.2212 -0.6894
| 27> P 5.5566 2.7491 -0.7565
| 28> O 4.2090 3.0503 -1.3263
| 29> O 6.7890 3.4979 -1.4510
| 30> O 5.7239 3.2526 0.7590
| 31> C 3.5337 -1.5683 -0.5458
| 32> O 4.4033 -2.7041 -0.6856
| 33> C 2.4519 -1.9129 0.4706
| 34> O 1.7515 -3.0818 0.0010
| 35> H -1.5611 -0.2564 1.3095
| 36> H -2.2647 -1.8003 0.8133
| 37> H -3.1469 -0.6330 -1.3212
| 38> H -2.5486 1.7691 0.0107
| 39> H -4.8442 0.8621 -0.2610
| 40> H -4.7478 1.3843 1.8165
| 41> H -4.4323 -1.7456 1.3370
| 42> H -5.3390 -1.6104 -0.1788
| 43> H -8.1057 -0.2245 -0.8034
| 44> H -7.1657 2.4205 1.4723
| 45> H -0.5048 1.3239 -0.7716
| 46> H 0.7696 -0.8800 -2.1543
| 47> H 0.6366 -0.2999 2.4622
| 48> H 5.0238 -0.6656 0.7391
| 49> H 4.5317 0.6571 -1.9902
| 50> H 5.7745 -0.5477 -1.6723
| 51> H 7.5715 3.5000 -0.8868
| 52> H 4.9275 2.9915 1.2683
| 53> H 3.1112 -1.3999 -1.5410
| 54> H 3.8064 -3.4681 -0.8389
| 55> H 2.9452 -2.2450 1.4023
| 56> H 1.0674 -3.2952 0.6696
| 57> *
| 58>
| 59>                          ****END OF INPUT****
FINAL SINGLE POINT ENERGY      -115.431841556290
FINAL SINGLE POINT ENERGY      -115.451413011580
FINAL SINGLE POINT ENERGY      -115.459264696300
FINAL SINGLE POINT ENERGY      -115.463291558220
FINAL SINGLE POINT ENERGY      -115.465368104600
FINAL SINGLE POINT ENERGY      -115.466392130850
FINAL SINGLE POINT ENERGY      -115.467118928440
FINAL SINGLE POINT ENERGY      -115.467718971560
FINAL SINGLE POINT ENERGY      -115.468482569290
FINAL SINGLE POINT ENERGY      -115.469266274350
FINAL SINGLE POINT ENERGY      -115.490130388360
FINAL SINGLE POINT ENERGY      -115.489883511010
FINAL SINGLE POINT ENERGY      -115.490135431810
FINAL SINGLE POINT ENERGY      -115.489884654830
FINAL SINGLE POINT ENERGY      -115.490144488300
FINAL SINGLE POINT ENERGY      -115.489981056010
FINAL SINGLE POINT ENERGY      -115.490191929420
FINAL SINGLE POINT ENERGY      -115.490189670250
FINAL SINGLE POINT ENERGY      -115.490195680570
                    ***********************HURRAY********************

CARTESIAN COORDINATES (ANGSTROEM)
---------------------------------
  O    -1.105204   -3.201635    0.100680
  C    -0.544114   -2.133018    0.158478
  C    -1.180376   -0.901363    0.712367
  C    -2.112318   -0.276789   -0.356401
  O    -1.371280    0.334243   -1.374734
  C    -3.063581    0.745368    0.303124
  O    -2.338702    1.472685    1.256830
  C    -4.287476    0.058504    0.926483
  O    -5.185491    0.983105    1.521596
  P    -5.755170    2.254902    0.779652
  O    -6.973005    2.807783    1.355072
  O    -5.878853    1.811012   -0.756257
  O    -4.530408    3.301172    0.781633
  C     0.862674   -2.031563   -0.499145
  O     1.019671   -0.875943   -1.236974
  O     1.001274   -3.156760   -1.323834
  C     1.966582   -2.066664    0.634340
  O     1.583037   -3.000331    1.609297
  C     2.084694   -0.698176    1.288587
  O     1.430394   -0.416495    2.271304
  O     2.976002    0.168479    0.871149
  C     3.792440    0.060947   -0.286613
  C     3.313430    1.186073   -1.216973
  O     3.111306    2.370293   -0.479698
  P     1.717575    2.561022    0.322705
  O     0.615236    1.743765   -0.185181
  O     1.496272    4.114511    0.149654
  O     2.013304    2.462702    1.877179
  C     3.806860   -1.327002   -0.932376
  O     5.119755   -1.589231   -1.356021
  C     3.372180   -2.407499    0.084357
  O     3.498228   -3.669616   -0.487837
  H    -0.465742   -0.134268    0.999841
  H    -1.782692   -1.185638    1.574044
  H    -2.707674   -1.059377   -0.841301
  H    -0.846096    1.059850   -0.973464
  H    -3.426321    1.405436   -0.498650
  H    -2.844408    2.262191    1.482104
  H    -3.986465   -0.598760    1.745568
  H    -4.812416   -0.517647    0.160050
  H    -6.734560    2.076038   -1.090523
  H    -4.867055    4.174348    0.977679
  H     0.149349   -0.515594   -1.531864
  H     0.287370   -3.776453   -1.071285
  H     1.212524   -2.520417    2.367012
  H     4.807999    0.285386    0.063970
  H     2.373316    0.880601   -1.682961
  H     4.071580    1.397246   -1.972009
  H     2.206340    4.621821    0.541619
  H     1.807345    1.591890    2.241008
  H     3.123904   -1.359425   -1.792300
  H     5.196533   -2.551557   -1.446880
  H     4.069957   -2.398487    0.934380
  H     2.712479   -3.821563   -1.041884

FINAL SINGLE POINT ENERGY      -115.490197146410

VIBRATIONAL FREQUENCIES
-----------------------

Scaling factor for frequencies =  1.000000000 (already applied!)

   0:         0.00 cm**-1
   1:         0.00 cm**-1
   2:         0.00 cm**-1
   3:         0.00 cm**-1
   4:         0.00 cm**-1
   5:         0.00 cm**-1
   6:        14.60 cm**-1
   7:        19.82 cm**-1
   8:        22.25 cm**-1
   9:        36.14 cm**-1
  10:        50.96 cm**-1
  11:        56.85 cm**-1
  12:        66.43 cm**-1
  13:        73.95 cm**-1
  14:        89.28 cm**-1
  15:        91.10 cm**-1
  16:        96.59 cm**-1
  17:       100.51 cm**-1
  18:       115.55 cm**-1
  19:       128.20 cm**-1
  20:       133.72 cm**-1
  21:       138.07 cm**-1
  22:       152.69 cm**-1
  23:       156.02 cm**-1
  24:       173.52 cm**-1
  25:       178.29 cm**-1
  26:       194.00 cm**-1
  27:       205.13 cm**-1
  28:       207.22 cm**-1
  29:       218.35 cm**-1
  30:       229.23 cm**-1
  31:       247.57 cm**-1
  32:       254.54 cm**-1
  33:       261.74 cm**-1
  34:       265.99 cm**-1
  35:       273.65 cm**-1
  36:       295.39 cm**-1
  37:       302.46 cm**-1
  38:       307.73 cm**-1
  39:       321.46 cm**-1
  40:       326.28 cm**-1
  41:       337.43 cm**-1
  42:       351.04 cm**-1
  43:       355.46 cm**-1
  44:       359.44 cm**-1
  45:       364.03 cm**-1
  46:       373.23 cm**-1
  47:       380.34 cm**-1
  48:       391.29 cm**-1
  49:       404.66 cm**-1
  50:       408.74 cm**-1
  51:       413.80 cm**-1
  52:       418.42 cm**-1
  53:       432.25 cm**-1
  54:       440.19 cm**-1
  55:       445.77 cm**-1
  56:       452.82 cm**-1
  57:       456.94 cm**-1
  58:       479.78 cm**-1
  59:       485.90 cm**-1
  60:       493.58 cm**-1
  61:       503.30 cm**-1
  62:       515.92 cm**-1
  63:       525.30 cm**-1
  64:       531.04 cm**-1
  65:       540.34 cm**-1
  66:       561.82 cm**-1
  67:       588.32 cm**-1
  68:       595.12 cm**-1
  69:       631.02 cm**-1
  70:       643.57 cm**-1
  71:       696.79 cm**-1
  72:       700.45 cm**-1
  73:       716.99 cm**-1
  74:       721.00 cm**-1
  75:       740.49 cm**-1
  76:       741.94 cm**-1
  77:       807.88 cm**-1
  78:       811.51 cm**-1
  79:       825.10 cm**-1
  80:       835.89 cm**-1
  81:       843.31 cm**-1
  82:       874.49 cm**-1
  83:       888.66 cm**-1
  84:       898.90 cm**-1
  85:       911.22 cm**-1
  86:       915.06 cm**-1
  87:       920.24 cm**-1
  88:       935.23 cm**-1
  89:       954.49 cm**-1
  90:       983.68 cm**-1
  91:       992.34 cm**-1
  92:      1002.60 cm**-1
  93:      1032.74 cm**-1
  94:      1038.34 cm**-1
  95:      1041.49 cm**-1
  96:      1048.09 cm**-1
  97:      1056.13 cm**-1
  98:      1068.86 cm**-1
  99:      1072.43 cm**-1
 100:      1084.48 cm**-1
 101:      1098.92 cm**-1
 102:      1105.28 cm**-1
 103:      1112.18 cm**-1
 104:      1119.58 cm**-1
 105:      1126.48 cm**-1
 106:      1139.50 cm**-1
 107:      1140.70 cm**-1
 108:      1155.90 cm**-1
 109:      1167.82 cm**-1
 110:      1186.90 cm**-1
 111:      1196.94 cm**-1
 112:      1210.39 cm**-1
 113:      1214.32 cm**-1
 114:      1229.69 cm**-1
 115:      1232.51 cm**-1
 116:      1243.28 cm**-1
 117:      1251.05 cm**-1
 118:      1256.07 cm**-1
 119:      1256.89 cm**-1
 120:      1264.82 cm**-1
 121:      1277.99 cm**-1
 122:      1282.16 cm**-1
 123:      1291.22 cm**-1
 124:      1296.20 cm**-1
 125:      1298.93 cm**-1
 126:      1321.63 cm**-1
 127:      1325.43 cm**-1
 128:      1326.18 cm**-1
 129:      1332.31 cm**-1
 130:      1335.16 cm**-1
 131:      1339.17 cm**-1
 132:      1346.17 cm**-1
 133:      1368.82 cm**-1
 134:      1376.04 cm**-1
 135:      1426.73 cm**-1
 136:      1430.80 cm**-1
 137:      1436.20 cm**-1
 138:      1707.35 cm**-1
 139:      1746.20 cm**-1
 140:      2888.23 cm**-1
 141:      2899.96 cm**-1
 142:      2910.83 cm**-1
 143:      2923.19 cm**-1
 144:      2936.23 cm**-1
 145:      2948.02 cm**-1
 146:      2968.04 cm**-1
 147:      2972.28 cm**-1
 148:      2989.97 cm**-1
 149:      3015.49 cm**-1
 150:      3055.59 cm**-1
 151:      3063.77 cm**-1
 152:      3244.00 cm**-1
 153:      3258.39 cm**-1
 154:      3364.94 cm**-1
 155:      3403.85 cm**-1
 156:      3413.99 cm**-1
 157:      3446.01 cm**-1
 158:      3527.09 cm**-1
 159:      3612.31 cm**-1
 160:      3621.81 cm**-1
 161:      3629.49 cm**-1

IR SPECTRUM
-----------

 Mode   freq       eps      Int      T**2         TX        TY        TZ
       cm**-1   L/(mol*cm) km/mol    a.u.
----------------------------------------------------------------------------
  6:     14.60   0.000273    1.38  0.005845  ( 0.000336 -0.001205 -0.076442)
  7:     19.82   0.000282    1.43  0.004441  ( 0.038489 -0.051613  0.017187)
  8:     22.25   0.000188    0.95  0.002639  ( 0.040256  0.021362 -0.023698)
  9:     36.14   0.000291    1.47  0.002514  ( 0.010894 -0.005555  0.048627)
 10:     50.96   0.000311    1.57  0.001905  (-0.023564  0.014181 -0.033888)
 11:     56.85   0.000711    3.59  0.003901  ( 0.008543 -0.051035 -0.034982)
 12:     66.43   0.001622    8.20  0.007618  (-0.013533 -0.085696  0.009552)
 13:     73.95   0.000890    4.50  0.003754  ( 0.034101  0.047286  0.018858)
 14:     89.28   0.000528    2.67  0.001845  (-0.028317  0.019588 -0.025674)
 15:     91.10   0.001245    6.29  0.004266  (-0.006679  0.021719  0.061235)
 16:     96.59   0.000844    4.27  0.002727  (-0.045251 -0.002313  0.025970)
 17:    100.51   0.000355    1.79  0.001102  (-0.011158  0.025500 -0.018081)
 18:    115.55   0.000902    4.56  0.002436  ( 0.024741 -0.037794  0.019886)
 19:    128.20   0.000715    3.61  0.001739  (-0.035812  0.018056 -0.011445)
 20:    133.72   0.000288    1.46  0.000673  (-0.006301 -0.022058 -0.012104)
 21:    138.07   0.000093    0.47  0.000210  ( 0.013713 -0.002223  0.004128)
 22:    152.69   0.004151   20.98  0.008484  (-0.061100 -0.018228 -0.066474)
 23:    156.02   0.001563    7.90  0.003127  ( 0.009852  0.046322  0.029736)
 24:    173.52   0.000645    3.26  0.001160  (-0.033233  0.007320  0.001274)
 25:    178.29   0.000376    1.90  0.000658  ( 0.000880 -0.014807 -0.020926)
 26:    194.00   0.000701    3.54  0.001127  ( 0.015467 -0.005709 -0.029244)
 27:    205.13   0.003026   15.29  0.004604  ( 0.042660 -0.019598 -0.048992)
 28:    207.22   0.000746    3.77  0.001124  (-0.007703  0.023262 -0.022885)
 29:    218.35   0.001043    5.27  0.001491  ( 0.013325 -0.009191  0.035060)
 30:    229.23   0.000230    1.16  0.000313  (-0.011048  0.010128  0.009410)
 31:    247.57   0.001994   10.08  0.002513  (-0.021721  0.036356  0.026823)
 32:    254.54   0.002452   12.39  0.003007  (-0.031338 -0.018083  0.041201)
 33:    261.74   0.003916   19.79  0.004669  ( 0.065235  0.010038 -0.017679)
 34:    265.99   0.021025  106.25  0.024667  (-0.028155 -0.037971  0.149773)
 35:    273.65   0.000788    3.98  0.000899  ( 0.028372  0.008851  0.003953)
 36:    295.39   0.009027   45.62  0.009537  ( 0.011963 -0.053899  0.080552)
 37:    302.46   0.003862   19.52  0.003985  ( 0.017920 -0.043660  0.041919)
 38:    307.73   0.007176   36.26  0.007277  (-0.014186  0.073741 -0.040471)
 39:    321.46   0.002929   14.80  0.002843  ( 0.037327  0.020376 -0.032171)
 40:    326.28   0.002228   11.26  0.002131  (-0.007749 -0.022211  0.039715)
 41:    337.43   0.002683   13.56  0.002482  (-0.028692 -0.023710 -0.033111)
 42:    351.04   0.013190   66.66  0.011725  ( 0.100455  0.035426  0.019477)
 43:    355.46   0.004389   22.18  0.003853  ( 0.011678 -0.013709 -0.059405)
 44:    359.44   0.020073  101.44  0.017427  (-0.038895 -0.085473  0.092784)
 45:    364.03   0.004391   22.19  0.003764  (-0.056917 -0.005255  0.022292)
 46:    373.23   0.003442   17.40  0.002878  (-0.051326  0.007807  0.013523)
 47:    380.34   0.013417   67.81  0.011009  ( 0.103891  0.003255 -0.014314)
 48:    391.29   0.001081    5.47  0.000862  (-0.027029 -0.000015  0.011486)
 49:    404.66   0.003415   17.26  0.002633  ( 0.048216 -0.017563  0.000268)
 50:    408.74   0.005749   29.06  0.004389  (-0.011015  0.040859 -0.050977)
 51:    413.80   0.030570  154.49  0.023054  ( 0.001129 -0.089098  0.122940)
 52:    418.42   0.037733  190.69  0.028142  ( 0.088985 -0.039326  0.136664)
 53:    432.25   0.018687   94.44  0.013491  (-0.062036 -0.077395 -0.060437)
 54:    440.19   0.007158   36.17  0.005075  ( 0.000431  0.024209  0.066994)
 55:    445.77   0.012186   61.58  0.008531  ( 0.089624  0.022183 -0.002531)
 56:    452.82   0.006636   33.54  0.004573  ( 0.001771  0.001536 -0.067586)
 57:    456.94   0.003372   17.04  0.002303  (-0.044942  0.005211  0.015995)
 58:    479.78   0.003549   17.93  0.002308  ( 0.025124 -0.034467 -0.022110)
 59:    485.90   0.006367   32.18  0.004089  ( 0.030624 -0.030849 -0.046898)
 60:    493.58   0.012132   61.31  0.007671  ( 0.045717 -0.070856 -0.023663)
 61:    503.30   0.002792   14.11  0.001731  (-0.010863  0.032382  0.023760)
 62:    515.92   0.013631   68.89  0.008245  (-0.065158  0.061295  0.015572)
 63:    525.30   0.028704  145.06  0.017052  ( 0.078970 -0.084816 -0.060184)
 64:    531.04   0.010383   52.47  0.006102  (-0.051093 -0.042944  0.040585)
 65:    540.34   0.013711   69.29  0.007918  ( 0.084850 -0.016401  0.021207)
 66:    561.82   0.028830  145.69  0.016013  (-0.001241  0.055903 -0.113519)
 67:    588.32   0.005883   29.73  0.003121  (-0.006058 -0.046582  0.030236)
 68:    595.12   0.039481  199.52  0.020703  (-0.104490  0.039584  0.090653)
 69:    631.02   0.002709   13.69  0.001340  ( 0.033852 -0.002936 -0.013606)
 70:    643.57   0.004020   20.31  0.001949  (-0.007971 -0.018707  0.039187)
 71:    696.79   0.001024    5.18  0.000459  ( 0.007775  0.011772  0.016115)
 72:    700.45   0.001689    8.53  0.000752  (-0.020933  0.016028  0.007563)
 73:    716.99   0.000713    3.60  0.000310  ( 0.000707 -0.012498  0.012396)
 74:    721.00   0.034142  172.54  0.014777  (-0.117342  0.012594  0.029146)
 75:    740.49   0.007127   36.02  0.003004  ( 0.026248 -0.024089  0.041645)
 76:    741.94   0.000949    4.80  0.000399  ( 0.004080 -0.013816  0.013846)
 77:    807.88   0.060522  305.85  0.023378  (-0.093504 -0.118886 -0.022389)
 78:    811.51   0.010331   52.21  0.003973  ( 0.022009 -0.037626  0.045528)
 79:    825.10   0.071550  361.58  0.027061  ( 0.046564 -0.049130  0.149930)
 80:    835.89   0.028856  145.82  0.010773  ( 0.059748 -0.072159 -0.044677)
 81:    843.31   0.022688  114.65  0.008396  ( 0.020947  0.035184 -0.081969)
 82:    874.49   0.043277  218.70  0.015444  ( 0.073553  0.056375  0.082797)
 83:    888.66   0.001878    9.49  0.000659  (-0.009614 -0.013087 -0.019893)
 84:    898.90   0.012423   62.78  0.004313  (-0.027178  0.049149  0.034038)
 85:    911.22   0.066653  336.84  0.022827  (-0.069803  0.129682 -0.033715)
 86:    915.06   0.050440  254.91  0.017202  (-0.031005  0.115852 -0.053091)
 87:    920.24   0.010423   52.68  0.003535  (-0.031642  0.027084 -0.042426)
 88:    935.23   0.023531  118.92  0.007852  (-0.064228  0.001976  0.061012)
 89:    954.49   0.004592   23.21  0.001501  (-0.029989 -0.015801  0.018775)
 90:    983.68   0.015516   78.41  0.004922  (-0.010349 -0.056729 -0.039965)
 91:    992.34   0.049088  248.07  0.015437  (-0.013793 -0.080556 -0.093580)
 92:   1002.60   0.009915   50.11  0.003086  (-0.028992  0.008055  0.046698)
 93:   1032.74   0.008534   43.13  0.002579  (-0.036049 -0.015523 -0.032224)
 94:   1038.34   0.009390   47.45  0.002822  (-0.046919  0.019598  0.015386)
 95:   1041.49   0.001620    8.19  0.000485  ( 0.003166 -0.000767 -0.021788)
 96:   1048.09   0.002315   11.70  0.000689  (-0.026191  0.001673  0.000788)
 97:   1056.13   0.022647  114.45  0.006692  (-0.028905  0.073052  0.022795)
 98:   1068.86   0.013511   68.28  0.003945  ( 0.034122 -0.025137  0.046350)
 99:   1072.43   0.003941   19.91  0.001147  ( 0.026542 -0.020683 -0.003801)
100:   1084.48   0.022844  115.44  0.006574  (-0.026463  0.067209  0.036825)
101:   1098.92   0.051233  258.91  0.014549  ( 0.084947 -0.079436 -0.031982)
102:   1105.28   0.003709   18.74  0.001047  (-0.006003  0.028108  0.014870)
103:   1112.18   0.023217  117.33  0.006514  (-0.060205 -0.035513  0.040357)
104:   1119.58   0.012794   64.66  0.003566  ( 0.021988 -0.021900 -0.051020)
105:   1126.48   0.009343   47.22  0.002588  ( 0.001252  0.007040  0.050371)
106:   1139.50   0.031737  160.39  0.008692  (-0.056325 -0.073894 -0.007660)
107:   1140.70   0.039184  198.02  0.010720  (-0.010029  0.101182  0.019526)
108:   1155.90   0.038439  194.25  0.010378  ( 0.005890 -0.095136  0.035944)
109:   1167.82   0.022343  112.91  0.005970  ( 0.056909 -0.041847 -0.031315)
110:   1186.90   0.010717   54.16  0.002818  ( 0.006657  0.048123 -0.021394)
111:   1196.94   0.003074   15.53  0.000801  ( 0.025388  0.008432  0.009256)
112:   1210.39   0.004686   23.68  0.001208  ( 0.000857 -0.034563  0.003564)
113:   1214.32   0.002238   11.31  0.000575  ( 0.015800  0.005188  0.017282)
114:   1229.69   0.019955  100.84  0.005064  (-0.050391 -0.037093  0.033894)
115:   1232.51   0.023301  117.75  0.005900  ( 0.061882 -0.006598  0.045019)
116:   1243.28   0.005850   29.56  0.001468  ( 0.025077  0.005326  0.028479)
117:   1251.05   0.012628   63.82  0.003150  (-0.028862 -0.046428  0.012700)
118:   1256.07   0.032509  164.29  0.008077  (-0.062966  0.051900  0.037662)
119:   1256.89   0.010766   54.41  0.002673  ( 0.013365  0.049262  0.008219)
120:   1264.82   0.089631  452.96  0.022114  ( 0.123266  0.072897  0.040072)
121:   1277.99   0.011611   58.68  0.002835  (-0.021059  0.039949  0.028212)
122:   1282.16   0.012212   61.71  0.002972  ( 0.004985 -0.030791  0.044714)
123:   1291.22   0.025004  126.36  0.006043  (-0.076992 -0.004512  0.009739)
124:   1296.20   0.055884  282.42  0.013454  (-0.093808  0.046170  0.050226)
125:   1298.93   0.025249  127.60  0.006066  (-0.034553  0.041629  0.056027)
126:   1321.63   0.005107   25.81  0.001206  (-0.016218 -0.001730 -0.030656)
127:   1325.43   0.008984   45.40  0.002115  (-0.033392 -0.024665  0.019797)
128:   1326.18   0.002925   14.78  0.000688  (-0.015245 -0.006287 -0.020404)
129:   1332.31   0.001960    9.90  0.000459  (-0.020675  0.005511  0.001079)
130:   1335.16   0.011784   59.55  0.002754  ( 0.041858  0.013807  0.028488)
131:   1339.17   0.040373  204.03  0.009408  (-0.061829 -0.073775  0.011936)
132:   1346.17   0.003537   17.88  0.000820  (-0.017988 -0.022241  0.001322)
133:   1368.82   0.017169   86.77  0.003914  ( 0.038334 -0.047246  0.014579)
134:   1376.04   0.058900  297.66  0.013358  (-0.071255  0.001129  0.090990)
135:   1426.73   0.000381    1.93  0.000083  ( 0.004065 -0.000211  0.008178)
136:   1430.80   0.000227    1.15  0.000050  (-0.002893 -0.003462 -0.005405)
137:   1436.20   0.000061    0.31  0.000013  ( 0.003257  0.000857 -0.001347)
138:   1707.35   0.090462  457.16  0.016534  ( 0.069685 -0.008280 -0.107748)
139:   1746.20   0.055036  278.13  0.009835  ( 0.031528  0.094002  0.002243)
140:   2888.23   0.005921   29.92  0.000640  ( 0.000056 -0.023120  0.010259)
141:   2899.96   0.000014    0.07  0.000001  ( 0.000620  0.001024  0.000201)
142:   2910.83   0.002840   14.35  0.000305  ( 0.016463 -0.001581  0.005566)
143:   2923.19   0.001078    5.45  0.000115  (-0.006923 -0.008136 -0.000977)
144:   2936.23   0.005543   28.01  0.000589  (-0.014337 -0.019574 -0.000673)
145:   2948.02   0.009398   47.49  0.000995  (-0.003672 -0.031202 -0.002791)
146:   2968.04   0.003186   16.10  0.000335  ( 0.000660 -0.018205 -0.001767)
147:   2972.28   0.006245   31.56  0.000656  ( 0.000400  0.025350 -0.003587)
148:   2989.97   0.000061    0.31  0.000006  (-0.001232 -0.001595  0.001510)
149:   3015.49   0.000626    3.16  0.000065  ( 0.000967  0.007946  0.000822)
150:   3055.59   0.006258   31.62  0.000639  (-0.022455  0.011567 -0.001026)
151:   3063.77   0.148226  749.07  0.015098  (-0.097792  0.072400 -0.017107)
152:   3244.00   0.084525  427.16  0.008131  (-0.071429 -0.048854 -0.025342)
153:   3258.39   0.047547  240.28  0.004554  (-0.063698 -0.021612  0.005403)
154:   3364.94   0.049336  249.32  0.004575  ( 0.059209  0.001752  0.032659)
155:   3403.85   0.050525  255.33  0.004632  (-0.012237 -0.066387  0.008664)
156:   3413.99   0.003220   16.27  0.000294  (-0.009533  0.002130  0.014104)
157:   3446.01   0.018581   93.90  0.001683  (-0.008239  0.039933  0.004490)
158:   3527.09   0.019266   97.36  0.001705  (-0.028214  0.026638  0.014107)
159:   3612.31   0.013669   69.08  0.001181  ( 0.023389  0.010679  0.022799)
160:   3621.81   0.015972   80.71  0.001376  ( 0.007797  0.028271  0.022718)
161:   3629.49   0.018210   92.02  0.001566  ( 0.031095 -0.023634  0.006339)

--------------------------
THERMOCHEMISTRY AT 298.15K
--------------------------

Temperature         ... 298.15 K
Pressure            ... 1.00 atm
Total Mass          ... 516.24 AMU

Throughout the following assumptions are being made:
  (1) The electronic state is orbitally nondegenerate
  (2) There are no thermally accessible electronically excited states
  (3) Hindered rotations indicated by low frequency modes are not
      treated as such but are treated as vibrations and this may
      cause some error
  (4) All equations used are the standard statistical mechanics
      equations for an ideal gas
  (5) All vibrations are strictly harmonic

freq.      14.60  E(vib)   ...       0.57
freq.      19.82  E(vib)   ...       0.56
freq.      22.25  E(vib)   ...       0.56
freq.      36.14  E(vib)   ...       0.54
freq.      50.96  E(vib)   ...       0.52
freq.      56.85  E(vib)   ...       0.51
freq.      66.43  E(vib)   ...       0.50
freq.      73.95  E(vib)   ...       0.49
freq.      89.28  E(vib)   ...       0.47
freq.      91.10  E(vib)   ...       0.47
freq.      96.59  E(vib)   ...       0.47
freq.     100.51  E(vib)   ...       0.46
freq.     115.55  E(vib)   ...       0.44
freq.     128.20  E(vib)   ...       0.43
freq.     133.72  E(vib)   ...       0.42
freq.     138.07  E(vib)   ...       0.42
freq.     152.69  E(vib)   ...       0.40
freq.     156.02  E(vib)   ...       0.40
freq.     173.52  E(vib)   ...       0.38
freq.     178.29  E(vib)   ...       0.37
freq.     194.00  E(vib)   ...       0.36
freq.     205.13  E(vib)   ...       0.35
freq.     207.22  E(vib)   ...       0.34
freq.     218.35  E(vib)   ...       0.33
freq.     229.23  E(vib)   ...       0.32
freq.     247.57  E(vib)   ...       0.31
freq.     254.54  E(vib)   ...       0.30
freq.     261.74  E(vib)   ...       0.30
freq.     265.99  E(vib)   ...       0.29
freq.     273.65  E(vib)   ...       0.28
freq.     295.39  E(vib)   ...       0.27
freq.     302.46  E(vib)   ...       0.26
freq.     307.73  E(vib)   ...       0.26
freq.     321.46  E(vib)   ...       0.25
freq.     326.28  E(vib)   ...       0.24
freq.     337.43  E(vib)   ...       0.24
freq.     351.04  E(vib)   ...       0.23
freq.     355.46  E(vib)   ...       0.22
freq.     359.44  E(vib)   ...       0.22
freq.     364.03  E(vib)   ...       0.22
freq.     373.23  E(vib)   ...       0.21
freq.     380.34  E(vib)   ...       0.21
freq.     391.29  E(vib)   ...       0.20
freq.     404.66  E(vib)   ...       0.19
freq.     408.74  E(vib)   ...       0.19
freq.     413.80  E(vib)   ...       0.19
freq.     418.42  E(vib)   ...       0.18
freq.     432.25  E(vib)   ...       0.18
freq.     440.19  E(vib)   ...       0.17
freq.     445.77  E(vib)   ...       0.17
freq.     452.82  E(vib)   ...       0.16
freq.     456.94  E(vib)   ...       0.16
freq.     479.78  E(vib)   ...       0.15
freq.     485.90  E(vib)   ...       0.15
freq.     493.58  E(vib)   ...       0.14
freq.     503.30  E(vib)   ...       0.14
freq.     515.92  E(vib)   ...       0.13
freq.     525.30  E(vib)   ...       0.13
freq.     531.04  E(vib)   ...       0.13
freq.     540.34  E(vib)   ...       0.12
freq.     561.82  E(vib)   ...       0.11
freq.     588.32  E(vib)   ...       0.10
freq.     595.12  E(vib)   ...       0.10
freq.     631.02  E(vib)   ...       0.09
freq.     643.57  E(vib)   ...       0.09
freq.     696.79  E(vib)   ...       0.07
freq.     700.45  E(vib)   ...       0.07
freq.     716.99  E(vib)   ...       0.07
freq.     721.00  E(vib)   ...       0.07
freq.     740.49  E(vib)   ...       0.06
freq.     741.94  E(vib)   ...       0.06
freq.     807.88  E(vib)   ...       0.05
freq.     811.51  E(vib)   ...       0.05
freq.     825.10  E(vib)   ...       0.04
freq.     835.89  E(vib)   ...       0.04
freq.     843.31  E(vib)   ...       0.04
freq.     874.49  E(vib)   ...       0.04
freq.     888.66  E(vib)   ...       0.04
freq.     898.90  E(vib)   ...       0.03
freq.     911.22  E(vib)   ...       0.03
freq.     915.06  E(vib)   ...       0.03
freq.     920.24  E(vib)   ...       0.03
freq.     935.23  E(vib)   ...       0.03
freq.     954.49  E(vib)   ...       0.03
freq.     983.68  E(vib)   ...       0.02
freq.     992.34  E(vib)   ...       0.02
freq.    1002.60  E(vib)   ...       0.02
freq.    1032.74  E(vib)   ...       0.02
freq.    1038.34  E(vib)   ...       0.02
freq.    1041.49  E(vib)   ...       0.02
freq.    1048.09  E(vib)   ...       0.02
freq.    1056.13  E(vib)   ...       0.02
freq.    1068.86  E(vib)   ...       0.02
freq.    1072.43  E(vib)   ...       0.02
freq.    1084.48  E(vib)   ...       0.02
freq.    1098.92  E(vib)   ...       0.02
freq.    1105.28  E(vib)   ...       0.02
freq.    1112.18  E(vib)   ...       0.01
freq.    1119.58  E(vib)   ...       0.01
freq.    1126.48  E(vib)   ...       0.01
freq.    1139.50  E(vib)   ...       0.01
freq.    1140.70  E(vib)   ...       0.01
freq.    1155.90  E(vib)   ...       0.01
freq.    1167.82  E(vib)   ...       0.01
freq.    1186.90  E(vib)   ...       0.01
freq.    1196.94  E(vib)   ...       0.01
freq.    1210.39  E(vib)   ...       0.01
freq.    1214.32  E(vib)   ...       0.01
freq.    1229.69  E(vib)   ...       0.01
freq.    1232.51  E(vib)   ...       0.01
freq.    1243.28  E(vib)   ...       0.01
freq.    1251.05  E(vib)   ...       0.01
freq.    1256.07  E(vib)   ...       0.01
freq.    1256.89  E(vib)   ...       0.01
freq.    1264.82  E(vib)   ...       0.01
freq.    1277.99  E(vib)   ...       0.01
freq.    1282.16  E(vib)   ...       0.01
freq.    1291.22  E(vib)   ...       0.01
freq.    1296.20  E(vib)   ...       0.01
freq.    1298.93  E(vib)   ...       0.01
freq.    1321.63  E(vib)   ...       0.01
freq.    1325.43  E(vib)   ...       0.01
freq.    1326.18  E(vib)   ...       0.01
freq.    1332.31  E(vib)   ...       0.01
freq.    1335.16  E(vib)   ...       0.01
freq.    1339.17  E(vib)   ...       0.01
freq.    1346.17  E(vib)   ...       0.01
freq.    1368.82  E(vib)   ...       0.01
freq.    1376.04  E(vib)   ...       0.01
freq.    1426.73  E(vib)   ...       0.00
freq.    1430.80  E(vib)   ...       0.00
freq.    1436.20  E(vib)   ...       0.00
freq.    1707.35  E(vib)   ...       0.00
freq.    1746.20  E(vib)   ...       0.00
freq.    2888.23  E(vib)   ...       0.00
freq.    2899.96  E(vib)   ...       0.00
freq.    2910.83  E(vib)   ...       0.00
freq.    2923.19  E(vib)   ...       0.00
freq.    2936.23  E(vib)   ...       0.00
freq.    2948.02  E(vib)   ...       0.00
freq.    2968.04  E(vib)   ...       0.00
freq.    2972.28  E(vib)   ...       0.00
freq.    2989.97  E(vib)   ...       0.00
freq.    3015.49  E(vib)   ...       0.00

Rotational constants in cm-1:     0.007278     0.002438     0.002035

                             ****ORCA TERMINATED NORMALLY****
TOTAL RUN TIME: 0 days 0 hours 14 minutes 12 seconds 684 msec
