                         Program Version 5.0.3 -  RELEASE  -
|  1> ! XTB2 opt numfreq
|  2> * XYZ 0 1
|  3> O 1.9482 -0.4197 2.7136
|  4> C 1.4826 0.4797 2.0292
|  5> O 1.6548 1.7765 2.3536
|  6> C 0.6732 0.2513 0.7457
|  7> O 0.5679 -1.1768 0.5338
|  8> C 1.4479 0.8306 -0.4709
|  9> C 2.8485 0.2234 -0.6915
| 10> O 3.7437 0.6731 0.3281
| 11> C 3.4049 0.5645 -2.0988
| 12> O 2.5786 -0.0610 -3.0871
| 13> C 4.8577 0.1115 -2.3033
| 14> O 4.9778 -1.2345 -1.8654
| 15> P 6.2000 -1.5937 -0.8968
| 16> O 7.5251 -1.6924 -1.5686
| 17> O 6.1169 -0.5567 0.3090
| 18> O 5.7528 -2.9606 -0.2087
| 19> C -0.7703 0.8693 0.8528
| 20> O -0.6769 2.3258 0.8273
| 21> C -1.4347 0.5460 2.1992
| 22> O -0.8907 0.8303 3.2653
| 23> O -2.6449 -0.0440 2.2009
| 24> C -3.6620 0.2350 1.2041
| 25> C -4.3941 -1.0874 0.9290
| 26> O -5.4997 -0.8930 0.0625
| 27> P -6.9383 -0.7089 0.7343
| 28> O -7.0677 0.3311 1.7885
| 29> O -7.8883 -0.4744 -0.5252
| 30> O -7.3604 -2.1778 1.1859
| 31> C -3.1269 0.9043 -0.0702
| 32> O -3.2283 2.3317 0.0613
| 33> C -1.6854 0.4576 -0.3301
| 34> O -1.6913 -0.9368 -0.6327
| 35> H 2.1178 1.7304 3.2218
| 36> H 1.0278 -1.6115 1.2890
| 37> H 0.8578 0.6390 -1.3742
| 38> H 1.5485 1.9180 -0.3648
| 39> H 2.7767 -0.8661 -0.6010
| 40> H 3.7862 1.6479 0.2872
| 41> H 3.3549 1.6457 -2.2712
| 42> H 2.8166 -1.0086 -3.0994
| 43> H 5.1259 0.1414 -3.3644
| 44> H 5.5430 0.7681 -1.7574
| 45> H 5.2048 -0.4616 0.6594
| 46> H 6.2894 -3.6977 -0.5564
| 47> H -0.1274 2.5859 1.6014
| 48> H -4.3740 0.9178 1.6837
| 49> H -3.7270 -1.8246 0.4722
| 50> H -4.7235 -1.5376 1.8741
| 51> H -7.8146 0.4397 -0.8531
| 52> H -8.2645 -2.1834 1.5452
| 53> H -3.7593 0.6433 -0.9254
| 54> H -2.3489 2.7027 0.2829
| 55> H -1.3452 0.9822 -1.2313
| 56> H -0.7854 -1.2949 -0.5084
| 57> *
| 58>
| 59>                          ****END OF INPUT****
FINAL SINGLE POINT ENERGY      -115.463776500180
FINAL SINGLE POINT ENERGY      -115.479630438440
FINAL SINGLE POINT ENERGY      -115.485142430390
FINAL SINGLE POINT ENERGY      -115.487946310770
FINAL SINGLE POINT ENERGY      -115.489331244920
FINAL SINGLE POINT ENERGY      -115.490701649040
FINAL SINGLE POINT ENERGY      -115.491758176570
FINAL SINGLE POINT ENERGY      -115.492759993640
FINAL SINGLE POINT ENERGY      -115.493540191660
FINAL SINGLE POINT ENERGY      -115.494122605800
FINAL SINGLE POINT ENERGY      -115.503778416080
FINAL SINGLE POINT ENERGY      -115.503895548460
FINAL SINGLE POINT ENERGY      -115.503914022330
FINAL SINGLE POINT ENERGY      -115.503957003630
FINAL SINGLE POINT ENERGY      -115.503967277870
FINAL SINGLE POINT ENERGY      -115.503973440510
FINAL SINGLE POINT ENERGY      -115.503977561510
FINAL SINGLE POINT ENERGY      -115.503980006920
FINAL SINGLE POINT ENERGY      -115.503981272310
                    ***********************HURRAY********************

CARTESIAN COORDINATES (ANGSTROEM)
---------------------------------
  O     2.244822   -1.063258    2.127183
  C     1.384347   -0.317954    1.749962
  O     1.062754    0.826891    2.357476
  C     0.602065   -0.585744    0.456738
  O     0.847186   -1.923407    0.102390
  C     1.118946    0.333989   -0.668942
  C     2.647257    0.366068   -0.704338
  O     3.178473    1.110399    0.371866
  C     3.144173    0.892713   -2.072538
  O     2.673456    0.073778   -3.106307
  C     4.679952    0.975885   -2.096089
  O     5.198771   -0.278136   -1.702576
  P     6.427013   -0.283238   -0.642781
  O     7.707135    0.181225   -1.157482
  O     5.905886    0.523531    0.608836
  O     6.374264   -1.815142   -0.219675
  C    -0.920470   -0.338909    0.702271
  O    -1.211662    1.038218    0.778407
  C    -1.334802   -1.068399    1.993237
  O    -0.524019   -1.540336    2.747399
  O    -2.631939   -1.151512    2.222346
  C    -3.540221   -0.425058    1.402157
  C    -4.950373   -0.909936    1.758366
  O    -5.893517   -0.426643    0.833607
  P    -6.135324    1.154175    0.683881
  O    -5.155405    2.027216    1.342968
  O    -6.355184    1.337546   -0.867398
  O    -7.611103    1.324188    1.242899
  C    -3.280071   -0.556383   -0.114979
  O    -3.645092    0.625195   -0.774998
  C    -1.816811   -0.949396   -0.399562
  O    -1.757629   -2.343110   -0.412068
  H     1.593952    0.921158    3.165160
  H     1.417676   -2.308248    0.792250
  H     0.763487   -0.065297   -1.619399
  H     0.725128    1.343024   -0.536947
  H     3.030097   -0.652122   -0.571882
  H     2.910179    2.033213    0.280936
  H     2.726409    1.889027   -2.262759
  H     3.169295   -0.754811   -3.076514
  H     5.011194    1.195024   -3.116316
  H     5.040864    1.766991   -1.432521
  H     4.976258    0.382746    0.827371
  H     7.149009   -2.257503   -0.560803
  H    -0.675408    1.425895    1.486184
  H    -3.473011    0.639185    1.658847
  H    -4.987728   -2.001244    1.696085
  H    -5.195940   -0.593258    2.775635
  H    -5.529245    1.165826   -1.329535
  H    -7.711936    2.190792    1.633883
  H    -3.907404   -1.349307   -0.534431
  H    -3.107731    1.347333   -0.415857
  H    -1.534784   -0.522877   -1.375129
  H    -0.822942   -2.609906   -0.441816

FINAL SINGLE POINT ENERGY      -115.503982021020

VIBRATIONAL FREQUENCIES
-----------------------

Scaling factor for frequencies =  1.000000000 (already applied!)

   0:         0.00 cm**-1
   1:         0.00 cm**-1
   2:         0.00 cm**-1
   3:         0.00 cm**-1
   4:         0.00 cm**-1
   5:         0.00 cm**-1
   6:        11.64 cm**-1
   7:        19.77 cm**-1
   8:        25.40 cm**-1
   9:        30.36 cm**-1
  10:        39.69 cm**-1
  11:        47.73 cm**-1
  12:        57.12 cm**-1
  13:        64.96 cm**-1
  14:        77.85 cm**-1
  15:        89.17 cm**-1
  16:        98.74 cm**-1
  17:       107.58 cm**-1
  18:       110.05 cm**-1
  19:       120.42 cm**-1
  20:       128.20 cm**-1
  21:       136.09 cm**-1
  22:       142.06 cm**-1
  23:       148.91 cm**-1
  24:       162.98 cm**-1
  25:       166.37 cm**-1
  26:       170.07 cm**-1
  27:       181.78 cm**-1
  28:       194.96 cm**-1
  29:       199.54 cm**-1
  30:       210.86 cm**-1
  31:       226.05 cm**-1
  32:       235.33 cm**-1
  33:       266.02 cm**-1
  34:       269.65 cm**-1
  35:       276.57 cm**-1
  36:       302.42 cm**-1
  37:       306.94 cm**-1
  38:       310.65 cm**-1
  39:       319.55 cm**-1
  40:       328.47 cm**-1
  41:       339.15 cm**-1
  42:       344.43 cm**-1
  43:       357.46 cm**-1
  44:       359.07 cm**-1
  45:       369.57 cm**-1
  46:       379.92 cm**-1
  47:       386.79 cm**-1
  48:       402.64 cm**-1
  49:       404.23 cm**-1
  50:       412.05 cm**-1
  51:       414.27 cm**-1
  52:       425.68 cm**-1
  53:       432.25 cm**-1
  54:       436.90 cm**-1
  55:       452.20 cm**-1
  56:       454.09 cm**-1
  57:       465.75 cm**-1
  58:       469.42 cm**-1
  59:       474.02 cm**-1
  60:       489.57 cm**-1
  61:       498.41 cm**-1
  62:       504.37 cm**-1
  63:       509.18 cm**-1
  64:       519.28 cm**-1
  65:       524.94 cm**-1
  66:       542.75 cm**-1
  67:       555.97 cm**-1
  68:       587.67 cm**-1
  69:       609.44 cm**-1
  70:       618.37 cm**-1
  71:       640.17 cm**-1
  72:       688.51 cm**-1
  73:       727.40 cm**-1
  74:       733.12 cm**-1
  75:       740.63 cm**-1
  76:       763.93 cm**-1
  77:       777.40 cm**-1
  78:       815.63 cm**-1
  79:       820.89 cm**-1
  80:       850.26 cm**-1
  81:       868.77 cm**-1
  82:       873.98 cm**-1
  83:       877.94 cm**-1
  84:       904.40 cm**-1
  85:       908.08 cm**-1
  86:       910.14 cm**-1
  87:       919.57 cm**-1
  88:       935.65 cm**-1
  89:       938.35 cm**-1
  90:       959.09 cm**-1
  91:       983.01 cm**-1
  92:      1004.18 cm**-1
  93:      1025.32 cm**-1
  94:      1044.62 cm**-1
  95:      1059.87 cm**-1
  96:      1073.59 cm**-1
  97:      1078.73 cm**-1
  98:      1086.83 cm**-1
  99:      1097.68 cm**-1
 100:      1102.35 cm**-1
 101:      1104.50 cm**-1
 102:      1111.67 cm**-1
 103:      1118.48 cm**-1
 104:      1122.49 cm**-1
 105:      1125.36 cm**-1
 106:      1130.21 cm**-1
 107:      1134.91 cm**-1
 108:      1145.07 cm**-1
 109:      1162.17 cm**-1
 110:      1169.42 cm**-1
 111:      1200.22 cm**-1
 112:      1205.06 cm**-1
 113:      1211.93 cm**-1
 114:      1222.00 cm**-1
 115:      1224.93 cm**-1
 116:      1227.87 cm**-1
 117:      1237.26 cm**-1
 118:      1242.93 cm**-1
 119:      1252.10 cm**-1
 120:      1253.96 cm**-1
 121:      1276.76 cm**-1
 122:      1282.02 cm**-1
 123:      1292.70 cm**-1
 124:      1303.69 cm**-1
 125:      1305.54 cm**-1
 126:      1311.41 cm**-1
 127:      1314.27 cm**-1
 128:      1317.29 cm**-1
 129:      1324.54 cm**-1
 130:      1329.04 cm**-1
 131:      1332.48 cm**-1
 132:      1341.04 cm**-1
 133:      1346.34 cm**-1
 134:      1347.99 cm**-1
 135:      1437.12 cm**-1
 136:      1454.65 cm**-1
 137:      1459.27 cm**-1
 138:      1761.50 cm**-1
 139:      1793.24 cm**-1
 140:      2859.19 cm**-1
 141:      2924.09 cm**-1
 142:      2926.05 cm**-1
 143:      2938.05 cm**-1
 144:      2946.19 cm**-1
 145:      2949.20 cm**-1
 146:      2953.32 cm**-1
 147:      2961.52 cm**-1
 148:      2967.43 cm**-1
 149:      2990.43 cm**-1
 150:      3004.20 cm**-1
 151:      3338.91 cm**-1
 152:      3384.73 cm**-1
 153:      3427.58 cm**-1
 154:      3441.45 cm**-1
 155:      3451.39 cm**-1
 156:      3460.11 cm**-1
 157:      3508.56 cm**-1
 158:      3512.74 cm**-1
 159:      3514.95 cm**-1
 160:      3622.63 cm**-1
 161:      3638.86 cm**-1

IR SPECTRUM
-----------

 Mode   freq       eps      Int      T**2         TX        TY        TZ
       cm**-1   L/(mol*cm) km/mol    a.u.
----------------------------------------------------------------------------
  6:     11.64   0.000215    1.09  0.005767  (-0.005411 -0.072935 -0.020452)
  7:     19.77   0.000332    1.68  0.005240  ( 0.019196 -0.050589  0.048091)
  8:     25.40   0.000354    1.79  0.004343  (-0.041366  0.038015  0.034455)
  9:     30.36   0.000196    0.99  0.002016  ( 0.004776  0.040694  0.018376)
 10:     39.69   0.000057    0.29  0.000450  (-0.010920 -0.016833  0.006871)
 11:     47.73   0.000343    1.73  0.002241  (-0.027354  0.021128  0.032345)
 12:     57.12   0.000391    1.98  0.002137  ( 0.044532 -0.004120  0.011716)
 13:     64.96   0.000814    4.11  0.003909  (-0.008572 -0.060212  0.014493)
 14:     77.85   0.000600    3.03  0.002403  ( 0.035382 -0.002947  0.033801)
 15:     89.17   0.000821    4.15  0.002875  (-0.034449 -0.021025 -0.035298)
 16:     98.74   0.001055    5.33  0.003334  (-0.046838 -0.020188 -0.027069)
 17:    107.58   0.001012    5.12  0.002936  ( 0.013681 -0.015008  0.050239)
 18:    110.05   0.001246    6.30  0.003534  ( 0.045910 -0.029035  0.024142)
 19:    120.42   0.000517    2.61  0.001339  (-0.031332 -0.014298 -0.012350)
 20:    128.20   0.003192   16.13  0.007769  ( 0.049565 -0.043549  0.058446)
 21:    136.09   0.001603    8.10  0.003677  ( 0.020341 -0.023762  0.051946)
 22:    142.06   0.004176   21.10  0.009173  ( 0.028986 -0.054260  0.073410)
 23:    148.91   0.004821   24.36  0.010102  (-0.030127  0.048369 -0.082794)
 24:    162.98   0.002610   13.19  0.004998  ( 0.045607 -0.044399  0.030772)
 25:    166.37   0.000902    4.56  0.001691  (-0.030484 -0.026868  0.006316)
 26:    170.07   0.001652    8.35  0.003032  (-0.042126  0.008392 -0.034453)
 27:    181.78   0.000329    1.66  0.000565  ( 0.017485  0.000219  0.016096)
 28:    194.96   0.003046   15.40  0.004876  ( 0.047649  0.025059  0.044475)
 29:    199.54   0.002392   12.09  0.003742  ( 0.007050 -0.007534  0.060292)
 30:    210.86   0.008123   41.05  0.012021  (-0.033597 -0.069074 -0.078238)
 31:    226.05   0.002454   12.40  0.003388  ( 0.047372 -0.023878  0.023951)
 32:    235.33   0.001773    8.96  0.002351  ( 0.024549 -0.035907 -0.021421)
 33:    266.02   0.003041   15.37  0.003568  (-0.050717 -0.015367 -0.027558)
 34:    269.65   0.000847    4.28  0.000980  ( 0.005857 -0.009677  0.029187)
 35:    276.57   0.002514   12.71  0.002837  ( 0.052344 -0.002246 -0.009582)
 36:    302.42   0.002025   10.23  0.002089  (-0.014363  0.042341  0.009493)
 37:    306.94   0.022074  111.55  0.022443  (-0.063913  0.094048 -0.097535)
 38:    310.65   0.000745    3.76  0.000748  ( 0.008644 -0.015679 -0.020679)
 39:    319.55   0.002178   11.01  0.002127  (-0.001852 -0.042892 -0.016843)
 40:    328.47   0.018454   93.26  0.017533  (-0.115118 -0.057011  0.032094)
 41:    339.15   0.002549   12.88  0.002345  ( 0.046781  0.001770  0.012402)
 42:    344.43   0.002017   10.19  0.001827  (-0.008073  0.009359  0.040923)
 43:    357.46   0.015189   76.76  0.013260  (-0.098871  0.014430  0.057235)
 44:    359.07   0.005104   25.79  0.004435  ( 0.041145  0.023684  0.046708)
 45:    369.57   0.012025   60.77  0.010154  ( 0.030494  0.073679 -0.061610)
 46:    379.92   0.008972   45.34  0.007370  (-0.062165  0.022574  0.054731)
 47:    386.79   0.006923   34.99  0.005586  (-0.071014  0.018863  0.013674)
 48:    402.64   0.057967  292.94  0.044927  (-0.185071  0.024908  0.100274)
 49:    404.23   0.003925   19.84  0.003030  (-0.033428 -0.043652 -0.002741)
 50:    412.05   0.010640   53.77  0.008058  ( 0.015609  0.055560 -0.068756)
 51:    414.27   0.021781  110.07  0.016407  (-0.058273 -0.010101  0.113620)
 52:    425.68   0.004568   23.08  0.003349  (-0.035174 -0.020713  0.041019)
 53:    432.25   0.009035   45.66  0.006523  (-0.053433 -0.031121 -0.051952)
 54:    436.90   0.012679   64.08  0.009057  ( 0.091928  0.015393 -0.019208)
 55:    452.20   0.006212   31.39  0.004287  (-0.042228  0.016906  0.047097)
 56:    454.09   0.006798   34.36  0.004672  (-0.033898 -0.056598  0.017878)
 57:    465.75   0.008455   42.73  0.005665  (-0.049352  0.055904 -0.010198)
 58:    469.42   0.023123  116.86  0.015372  ( 0.083803  0.069055 -0.059838)
 59:    474.02   0.028007  141.54  0.018438  (-0.008182 -0.121561  0.059949)
 60:    489.57   0.001686    8.52  0.001074  ( 0.026471 -0.019331 -0.000192)
 61:    498.41   0.019200   97.03  0.012022  ( 0.079370 -0.075641 -0.000659)
 62:    504.37   0.004596   23.22  0.002843  (-0.005418 -0.049841 -0.018160)
 63:    509.18   0.035372  178.76  0.021679  (-0.051251 -0.014946  0.137217)
 64:    519.28   0.009771   49.38  0.005872  (-0.025793 -0.042806  0.058088)
 65:    524.94   0.026795  135.41  0.015929  ( 0.053256 -0.024917 -0.111676)
 66:    542.75   0.009307   47.03  0.005351  ( 0.029961  0.004155  0.066604)
 67:    555.97   0.002149   10.86  0.001206  ( 0.004012 -0.028841 -0.018936)
 68:    587.67   0.001199    6.06  0.000636  ( 0.022481  0.003942  0.010749)
 69:    609.44   0.018967   95.85  0.009712  (-0.049964 -0.002835  0.084896)
 70:    618.37   0.010359   52.35  0.005228  ( 0.038894  0.003817  0.060831)
 71:    640.17   0.006206   31.36  0.003025  ( 0.052641  0.010846 -0.011691)
 72:    688.51   0.035524  179.52  0.016101  (-0.109484 -0.050247  0.039868)
 73:    727.40   0.026321  133.02  0.011292  (-0.016172  0.104767  0.007383)
 74:    733.12   0.006146   31.06  0.002616  ( 0.021865  0.024161 -0.039425)
 75:    740.63   0.014789   74.74  0.006231  (-0.065803  0.012690  0.041717)
 76:    763.93   0.024231  122.45  0.009898  ( 0.063600 -0.011945  0.075569)
 77:    777.40   0.003403   17.20  0.001366  (-0.034595  0.004480  0.012215)
 78:    815.63   0.035547  179.64  0.013600  ( 0.036769 -0.054099  0.096548)
 79:    820.89   0.023001  116.24  0.008744  ( 0.067747 -0.064432  0.001650)
 80:    850.26   0.009177   46.38  0.003368  (-0.046558  0.026069  0.022827)
 81:    868.77   0.041217  208.29  0.014805  ( 0.035990 -0.110583 -0.035795)
 82:    873.98   0.036943  186.70  0.013191  (-0.054933  0.010984  0.100262)
 83:    877.94   0.005116   25.85  0.001819  ( 0.011439  0.007202 -0.040445)
 84:    904.40   0.038958  196.88  0.013443  (-0.076971 -0.049935  0.070884)
 85:    908.08   0.005968   30.16  0.002051  (-0.014867 -0.022066  0.036645)
 86:    910.14   0.023815  120.35  0.008166  (-0.026946 -0.052510  0.068427)
 87:    919.57   0.011025   55.72  0.003741  (-0.018016  0.057332 -0.011396)
 88:    935.65   0.107299  542.24  0.035787  ( 0.151500 -0.065035  0.092764)
 89:    938.35   0.001155    5.83  0.000384  (-0.018890 -0.001425  0.005010)
 90:    959.09   0.040623  205.29  0.013218  ( 0.040366  0.076471  0.075766)
 91:    983.01   0.005237   26.46  0.001662  ( 0.024490  0.031785  0.007237)
 92:   1004.18   0.008911   45.03  0.002769  ( 0.008718  0.003138  0.051801)
 93:   1025.32   0.003085   15.59  0.000939  ( 0.008278 -0.023009 -0.018464)
 94:   1044.62   0.001183    5.98  0.000353  (-0.012943 -0.009718 -0.009564)
 95:   1059.87   0.005133   25.94  0.001511  (-0.034321  0.018127  0.002206)
 96:   1073.59   0.007814   39.49  0.002271  (-0.019300  0.020448 -0.038480)
 97:   1078.73   0.059635  301.37  0.017252  (-0.023982  0.117027 -0.054600)
 98:   1086.83   0.019492   98.51  0.005597  ( 0.039266  0.007847  0.063194)
 99:   1097.68   0.002914   14.73  0.000829  (-0.016152  0.022131 -0.008827)
100:   1102.35   0.000922    4.66  0.000261  ( 0.012573  0.000079  0.010145)
101:   1104.50   0.014108   71.30  0.003986  ( 0.048512 -0.024955  0.031779)
102:   1111.67   0.014825   74.92  0.004162  ( 0.011040  0.040774  0.048758)
103:   1118.48   0.005498   27.78  0.001534  (-0.012935 -0.036966  0.000343)
104:   1122.49   0.023228  117.39  0.006458  ( 0.020261  0.071309  0.031022)
105:   1125.36   0.015557   78.62  0.004314  ( 0.019803  0.030965  0.054433)
106:   1130.21   0.018337   92.67  0.005063  ( 0.032925 -0.060006 -0.019449)
107:   1134.91   0.035012  176.94  0.009627  (-0.045129  0.085352  0.017481)
108:   1145.07   0.004417   22.32  0.001204  (-0.019577  0.027435  0.008235)
109:   1162.17   0.007150   36.13  0.001920  ( 0.034444  0.014899  0.022616)
110:   1169.42   0.007735   39.09  0.002064  ( 0.019303  0.000684  0.041122)
111:   1200.22   0.006267   31.67  0.001630  ( 0.011584 -0.018919 -0.033725)
112:   1205.06   0.047742  241.27  0.012363  ( 0.108251  0.025346 -0.001593)
113:   1211.93   0.002993   15.13  0.000771  ( 0.005584 -0.025596  0.009189)
114:   1222.00   0.001905    9.62  0.000486  (-0.011171 -0.001803  0.018930)
115:   1224.93   0.001607    8.12  0.000409  ( 0.001309  0.018706 -0.007599)
116:   1227.87   0.017508   88.48  0.004450  ( 0.019221  0.041797  0.048304)
117:   1237.26   0.025231  127.51  0.006364  ( 0.078467 -0.014047 -0.003085)
118:   1242.93   0.057026  288.19  0.014318  ( 0.072546  0.065044  0.069454)
119:   1252.10   0.021527  108.79  0.005365  ( 0.030452 -0.040676 -0.052757)
120:   1253.96   0.013039   65.89  0.003245  ( 0.000492  0.046270  0.033224)
121:   1276.76   0.010805   54.61  0.002641  ( 0.027298 -0.043400 -0.003492)
122:   1282.02   0.023851  120.53  0.005806  (-0.069633 -0.024415 -0.018995)
123:   1292.70   0.077361  390.95  0.018675  (-0.123741 -0.044892  0.036716)
124:   1303.69   0.007463   37.72  0.001787  ( 0.024807 -0.034203  0.001126)
125:   1305.54   0.006683   33.77  0.001597  ( 0.034977  0.010602  0.016177)
126:   1311.41   0.001272    6.43  0.000303  (-0.005077 -0.009194 -0.013871)
127:   1314.27   0.010072   50.90  0.002392  (-0.024591  0.036107 -0.021980)
128:   1317.29   0.011549   58.36  0.002736  (-0.049641 -0.010906  0.012361)
129:   1324.54   0.016097   81.35  0.003792  ( 0.034981  0.050062 -0.007904)
130:   1329.04   0.010985   55.51  0.002579  ( 0.027540  0.018211  0.038591)
131:   1332.48   0.018680   94.40  0.004375  ( 0.041161  0.040429  0.032342)
132:   1341.04   0.010510   53.12  0.002446  ( 0.023696 -0.003016  0.043304)
133:   1346.34   0.014893   75.26  0.003452  ( 0.026914  0.024023  0.046374)
134:   1347.99   0.022559  114.00  0.005222  (-0.027033  0.057995 -0.033591)
135:   1437.12   0.000193    0.97  0.000042  (-0.001072  0.001162 -0.006274)
136:   1454.65   0.001596    8.06  0.000342  ( 0.000616 -0.001259  0.018449)
137:   1459.27   0.000066    0.33  0.000014  (-0.000173  0.002230  0.003017)
138:   1761.50   0.066609  336.61  0.011800  (-0.082806  0.025918 -0.065358)
139:   1793.24   0.111755  564.76  0.019448  (-0.105260  0.081606 -0.041337)
140:   2859.19   0.005440   27.49  0.000594  ( 0.001657 -0.014569  0.019460)
141:   2924.09   0.000097    0.49  0.000010  ( 0.000981  0.000400  0.003033)
142:   2926.05   0.003102   15.68  0.000331  (-0.001132  0.017143 -0.005977)
143:   2938.05   0.007317   36.98  0.000777  (-0.001140 -0.005509 -0.027305)
144:   2946.19   0.005545   28.02  0.000587  (-0.000198  0.001684  0.024176)
145:   2949.20   0.006398   32.33  0.000677  ( 0.000011  0.025848 -0.002983)
146:   2953.32   0.001438    7.27  0.000152  ( 0.000275 -0.011228  0.005080)
147:   2961.52   0.002119   10.71  0.000223  (-0.000612 -0.014074  0.004988)
148:   2967.43   0.002164   10.94  0.000228  ( 0.002030  0.014175  0.004745)
149:   2990.43   0.002267   11.46  0.000237  (-0.000397 -0.015039  0.003206)
150:   3004.20   0.000113    0.57  0.000012  ( 0.000388 -0.000125 -0.003406)
151:   3338.91   0.031145  157.39  0.002911  ( 0.043963 -0.008836  0.030001)
152:   3384.73   0.024460  123.61  0.002255  (-0.047307  0.004030 -0.000962)
153:   3427.58   0.022968  116.07  0.002091  ( 0.030680  0.011109  0.032037)
154:   3441.45   0.072454  366.15  0.006570  ( 0.080968 -0.003706  0.000667)
155:   3451.39   0.012064   60.97  0.001091  ( 0.024246  0.020218  0.009706)
156:   3460.11   0.002872   14.51  0.000259  (-0.012027 -0.007825  0.007288)
157:   3508.56   0.015823   79.96  0.001407  ( 0.034208 -0.011064 -0.010713)
158:   3512.74   0.011821   59.74  0.001050  ( 0.026736 -0.017530 -0.005301)
159:   3514.95   0.005721   28.91  0.000508  (-0.015760  0.010997 -0.011773)
160:   3622.63   0.006630   33.51  0.000571  ( 0.008607 -0.021552 -0.005709)
161:   3638.86   0.018824   95.13  0.001614  (-0.033808  0.021587 -0.002308)

--------------------------
THERMOCHEMISTRY AT 298.15K
--------------------------

Temperature         ... 298.15 K
Pressure            ... 1.00 atm
Total Mass          ... 516.24 AMU

Throughout the following assumptions are being made:
  (1) The electronic state is orbitally nondegenerate
  (2) There are no thermally accessible electronically excited states
  (3) Hindered rotations indicated by low frequency modes are not
      treated as such but are treated as vibrations and this may
      cause some error
  (4) All equations used are the standard statistical mechanics
      equations for an ideal gas
  (5) All vibrations are strictly harmonic

freq.      11.64  E(vib)   ...       0.58
freq.      19.77  E(vib)   ...       0.56
freq.      25.40  E(vib)   ...       0.56
freq.      30.36  E(vib)   ...       0.55
freq.      39.69  E(vib)   ...       0.54
freq.      47.73  E(vib)   ...       0.53
freq.      57.12  E(vib)   ...       0.51
freq.      64.96  E(vib)   ...       0.50
freq.      77.85  E(vib)   ...       0.49
freq.      89.17  E(vib)   ...       0.47
freq.      98.74  E(vib)   ...       0.46
freq.     107.58  E(vib)   ...       0.45
freq.     110.05  E(vib)   ...       0.45
freq.     120.42  E(vib)   ...       0.44
freq.     128.20  E(vib)   ...       0.43
freq.     136.09  E(vib)   ...       0.42
freq.     142.06  E(vib)   ...       0.41
freq.     148.91  E(vib)   ...       0.40
freq.     162.98  E(vib)   ...       0.39
freq.     166.37  E(vib)   ...       0.39
freq.     170.07  E(vib)   ...       0.38
freq.     181.78  E(vib)   ...       0.37
freq.     194.96  E(vib)   ...       0.36
freq.     199.54  E(vib)   ...       0.35
freq.     210.86  E(vib)   ...       0.34
freq.     226.05  E(vib)   ...       0.33
freq.     235.33  E(vib)   ...       0.32
freq.     266.02  E(vib)   ...       0.29
freq.     269.65  E(vib)   ...       0.29
freq.     276.57  E(vib)   ...       0.28
freq.     302.42  E(vib)   ...       0.26
freq.     306.94  E(vib)   ...       0.26
freq.     310.65  E(vib)   ...       0.26
freq.     319.55  E(vib)   ...       0.25
freq.     328.47  E(vib)   ...       0.24
freq.     339.15  E(vib)   ...       0.23
freq.     344.43  E(vib)   ...       0.23
freq.     357.46  E(vib)   ...       0.22
freq.     359.07  E(vib)   ...       0.22
freq.     369.57  E(vib)   ...       0.21
freq.     379.92  E(vib)   ...       0.21
freq.     386.79  E(vib)   ...       0.20
freq.     402.64  E(vib)   ...       0.19
freq.     404.23  E(vib)   ...       0.19
freq.     412.05  E(vib)   ...       0.19
freq.     414.27  E(vib)   ...       0.19
freq.     425.68  E(vib)   ...       0.18
freq.     432.25  E(vib)   ...       0.18
freq.     436.90  E(vib)   ...       0.17
freq.     452.20  E(vib)   ...       0.16
freq.     454.09  E(vib)   ...       0.16
freq.     465.75  E(vib)   ...       0.16
freq.     469.42  E(vib)   ...       0.16
freq.     474.02  E(vib)   ...       0.15
freq.     489.57  E(vib)   ...       0.15
freq.     498.41  E(vib)   ...       0.14
freq.     504.37  E(vib)   ...       0.14
freq.     509.18  E(vib)   ...       0.14
freq.     519.28  E(vib)   ...       0.13
freq.     524.94  E(vib)   ...       0.13
freq.     542.75  E(vib)   ...       0.12
freq.     555.97  E(vib)   ...       0.12
freq.     587.67  E(vib)   ...       0.10
freq.     609.44  E(vib)   ...       0.10
freq.     618.37  E(vib)   ...       0.09
freq.     640.17  E(vib)   ...       0.09
freq.     688.51  E(vib)   ...       0.07
freq.     727.40  E(vib)   ...       0.06
freq.     733.12  E(vib)   ...       0.06
freq.     740.63  E(vib)   ...       0.06
freq.     763.93  E(vib)   ...       0.06
freq.     777.40  E(vib)   ...       0.05
freq.     815.63  E(vib)   ...       0.05
freq.     820.89  E(vib)   ...       0.05
freq.     850.26  E(vib)   ...       0.04
freq.     868.77  E(vib)   ...       0.04
freq.     873.98  E(vib)   ...       0.04
freq.     877.94  E(vib)   ...       0.04
freq.     904.40  E(vib)   ...       0.03
freq.     908.08  E(vib)   ...       0.03
freq.     910.14  E(vib)   ...       0.03
freq.     919.57  E(vib)   ...       0.03
freq.     935.65  E(vib)   ...       0.03
freq.     938.35  E(vib)   ...       0.03
freq.     959.09  E(vib)   ...       0.03
freq.     983.01  E(vib)   ...       0.02
freq.    1004.18  E(vib)   ...       0.02
freq.    1025.32  E(vib)   ...       0.02
freq.    1044.62  E(vib)   ...       0.02
freq.    1059.87  E(vib)   ...       0.02
freq.    1073.59  E(vib)   ...       0.02
freq.    1078.73  E(vib)   ...       0.02
freq.    1086.83  E(vib)   ...       0.02
freq.    1097.68  E(vib)   ...       0.02
freq.    1102.35  E(vib)   ...       0.02
freq.    1104.50  E(vib)   ...       0.02
freq.    1111.67  E(vib)   ...       0.01
freq.    1118.48  E(vib)   ...       0.01
freq.    1122.49  E(vib)   ...       0.01
freq.    1125.36  E(vib)   ...       0.01
freq.    1130.21  E(vib)   ...       0.01
freq.    1134.91  E(vib)   ...       0.01
freq.    1145.07  E(vib)   ...       0.01
freq.    1162.17  E(vib)   ...       0.01
freq.    1169.42  E(vib)   ...       0.01
freq.    1200.22  E(vib)   ...       0.01
freq.    1205.06  E(vib)   ...       0.01
freq.    1211.93  E(vib)   ...       0.01
freq.    1222.00  E(vib)   ...       0.01
freq.    1224.93  E(vib)   ...       0.01
freq.    1227.87  E(vib)   ...       0.01
freq.    1237.26  E(vib)   ...       0.01
freq.    1242.93  E(vib)   ...       0.01
freq.    1252.10  E(vib)   ...       0.01
freq.    1253.96  E(vib)   ...       0.01
freq.    1276.76  E(vib)   ...       0.01
freq.    1282.02  E(vib)   ...       0.01
freq.    1292.70  E(vib)   ...       0.01
freq.    1303.69  E(vib)   ...       0.01
freq.    1305.54  E(vib)   ...       0.01
freq.    1311.41  E(vib)   ...       0.01
freq.    1314.27  E(vib)   ...       0.01
freq.    1317.29  E(vib)   ...       0.01
freq.    1324.54  E(vib)   ...       0.01
freq.    1329.04  E(vib)   ...       0.01
freq.    1332.48  E(vib)   ...       0.01
freq.    1341.04  E(vib)   ...       0.01
freq.    1346.34  E(vib)   ...       0.01
freq.    1347.99  E(vib)   ...       0.01
freq.    1437.12  E(vib)   ...       0.00
freq.    1454.65  E(vib)   ...       0.00
freq.    1459.27  E(vib)   ...       0.00
freq.    1761.50  E(vib)   ...       0.00
freq.    1793.24  E(vib)   ...       0.00
freq.    2859.19  E(vib)   ...       0.00
freq.    2924.09  E(vib)   ...       0.00
freq.    2926.05  E(vib)   ...       0.00
freq.    2938.05  E(vib)   ...       0.00
freq.    2946.19  E(vib)   ...       0.00
freq.    2949.20  E(vib)   ...       0.00
freq.    2953.32  E(vib)   ...       0.00
freq.    2961.52  E(vib)   ...       0.00
freq.    2967.43  E(vib)   ...       0.00
freq.    2990.43  E(vib)   ...       0.00

Rotational constants in cm-1:     0.011689     0.001592     0.001528

                             ****ORCA TERMINATED NORMALLY****
TOTAL RUN TIME: 0 days 0 hours 14 minutes 17 seconds 399 msec
