                         Program Version 5.0.3 -  RELEASE  -
|  1> ! XTB2 opt numfreq
|  2> * XYZ 0 1
|  3> O -3.8571 -0.0970 -0.4912
|  4> C -2.6649 -0.0745 -0.8151
|  5> C -1.5420 0.0443 0.2212
|  6> O -2.0016 -0.5939 1.4385
|  7> C -1.3220 1.5374 0.5295
|  8> O -2.5208 2.1277 1.0433
|  9> P -3.4848 2.8827 0.0071
| 10> O -3.0761 2.8368 -1.4244
| 11> O -4.9164 2.2368 0.2972
| 12> O -3.6184 4.3601 0.5924
| 13> C -0.2321 -0.6376 -0.2971
| 14> O -0.0054 -0.2178 -1.6391
| 15> O 0.8611 -0.1247 0.4756
| 16> C 2.1065 -0.8462 0.4598
| 17> C 2.7870 -0.8281 -0.9250
| 18> O 2.7039 0.4367 -1.5647
| 19> P 3.4822 1.6799 -0.9205
| 20> O 4.7544 1.3985 -0.2201
| 21> O 2.3723 2.4229 -0.0558
| 22> O 3.6015 2.6774 -2.1570
| 23> C 1.9300 -2.2842 0.9857
| 24> O 2.4418 -2.3808 2.3322
| 25> C 0.4547 -2.6991 1.0089
| 26> O 0.3897 -4.1353 1.0802
| 27> C -0.2870 -2.1967 -0.2327
| 28> O -1.6103 -2.7462 -0.2276
| 29> H -2.3768 -0.0351 -1.8805
| 30> H -2.7491 -0.0402 1.7513
| 31> H -0.5922 1.6488 1.3282
| 32> H -0.9454 2.0954 -0.3344
| 33> H -4.9464 1.3303 -0.0915
| 34> H -4.0008 4.9654 -0.0689
| 35> H 0.6231 0.5382 -1.5754
| 36> H 2.7568 -0.2881 1.1471
| 37> H 3.8383 -1.1211 -0.8409
| 38> H 2.3154 -1.5491 -1.5951
| 39> H 2.7105 3.2625 0.3037
| 40> H 4.3179 2.4174 -2.7684
| 41> H 2.5333 -2.9934 0.3941
| 42> H 2.1808 -3.2720 2.6476
| 43> H -0.0360 -2.3413 1.9195
| 44> H -0.4912 -4.3761 0.7251
| 45> H 0.1829 -2.6229 -1.1231
| 46> H -2.0670 -2.3977 0.5605
| 47> *
| 48>
| 49>                          ****END OF INPUT****
FINAL SINGLE POINT ENERGY       -94.773583261940
FINAL SINGLE POINT ENERGY       -94.788045033690
FINAL SINGLE POINT ENERGY       -94.790788676550
FINAL SINGLE POINT ENERGY       -94.790926232960
FINAL SINGLE POINT ENERGY       -94.792723192470
FINAL SINGLE POINT ENERGY       -94.793336111570
FINAL SINGLE POINT ENERGY       -94.794729529500
FINAL SINGLE POINT ENERGY       -94.795350560460
FINAL SINGLE POINT ENERGY       -94.795924441900
FINAL SINGLE POINT ENERGY       -94.796412182700
FINAL SINGLE POINT ENERGY       -94.798534039180
FINAL SINGLE POINT ENERGY       -94.798593444580
FINAL SINGLE POINT ENERGY       -94.798664947720
FINAL SINGLE POINT ENERGY       -94.798710322920
FINAL SINGLE POINT ENERGY       -94.798751867760
FINAL SINGLE POINT ENERGY       -94.798768871430
FINAL SINGLE POINT ENERGY       -94.798781871700
FINAL SINGLE POINT ENERGY       -94.798789079580
FINAL SINGLE POINT ENERGY       -94.798792345020
                    ***********************HURRAY********************

CARTESIAN COORDINATES (ANGSTROEM)
---------------------------------
  O    -3.626717    0.029245    0.554405
  C    -2.644221   -0.236805   -0.090195
  C    -1.269232    0.313808    0.279076
  O    -1.158410    0.474164    1.673152
  C    -1.187239    1.686310   -0.425635
  O    -2.144019    2.533265    0.166011
  P    -3.561517    2.713742   -0.591156
  O    -3.668323    1.921328   -1.817603
  O    -4.643482    2.530561    0.539545
  O    -3.627011    4.282242   -0.803026
  C    -0.154327   -0.668401   -0.177260
  O     0.020018   -0.644683   -1.555777
  O     1.012907   -0.286914    0.508304
  C     2.173735   -1.067437    0.245489
  C     2.906655   -0.548924   -1.008156
  O     2.611483    0.815284   -1.228133
  P     3.115624    1.846440   -0.085994
  O     4.201572    1.322708    0.740604
  O     1.818114    2.363791    0.663540
  O     3.439376    3.131606   -0.947587
  C     1.859905   -2.567636    0.172649
  O     2.932990   -3.273812    0.721557
  C     0.556349   -2.822026    0.942088
  O     0.348586   -4.210450    1.004498
  C    -0.590092   -2.113998    0.210311
  O    -1.771771   -2.139299    0.962595
  H    -2.688339   -0.769840   -1.049061
  H    -1.742825    1.208987    1.915197
  H    -0.206698    2.140568   -0.266298
  H    -1.399809    1.565275   -1.491552
  H    -4.762877    1.600967    0.758722
  H    -3.880205    4.475283   -1.704234
  H     0.543814    0.134914   -1.797076
  H     2.815228   -0.893778    1.115203
  H     3.979760   -0.685552   -0.859872
  H     2.584055   -1.075559   -1.909142
  H     1.482215    1.708291    1.279601
  H     4.382058    3.291208   -0.936756
  H     1.694748   -2.878008   -0.872553
  H     2.622891   -4.171986    0.902241
  H     0.650237   -2.403869    1.958454
  H    -0.569833   -4.368812    1.254816
  H    -0.809738   -2.654620   -0.717025
  H    -1.645332   -1.607482    1.766231

FINAL SINGLE POINT ENERGY       -94.798794069000

VIBRATIONAL FREQUENCIES
-----------------------

Scaling factor for frequencies =  1.000000000 (already applied!)

   0:         0.00 cm**-1
   1:         0.00 cm**-1
   2:         0.00 cm**-1
   3:         0.00 cm**-1
   4:         0.00 cm**-1
   5:         0.00 cm**-1
   6:         7.28 cm**-1
   7:        28.36 cm**-1
   8:        35.01 cm**-1
   9:        50.38 cm**-1
  10:        54.15 cm**-1
  11:        63.84 cm**-1
  12:        75.90 cm**-1
  13:        83.93 cm**-1
  14:        90.72 cm**-1
  15:       100.14 cm**-1
  16:       114.45 cm**-1
  17:       125.46 cm**-1
  18:       148.27 cm**-1
  19:       156.80 cm**-1
  20:       178.89 cm**-1
  21:       190.63 cm**-1
  22:       198.89 cm**-1
  23:       211.31 cm**-1
  24:       222.06 cm**-1
  25:       231.34 cm**-1
  26:       235.57 cm**-1
  27:       240.39 cm**-1
  28:       254.96 cm**-1
  29:       276.05 cm**-1
  30:       285.84 cm**-1
  31:       292.00 cm**-1
  32:       302.71 cm**-1
  33:       318.70 cm**-1
  34:       327.20 cm**-1
  35:       344.75 cm**-1
  36:       349.33 cm**-1
  37:       356.12 cm**-1
  38:       365.49 cm**-1
  39:       369.40 cm**-1
  40:       372.14 cm**-1
  41:       386.01 cm**-1
  42:       403.09 cm**-1
  43:       407.22 cm**-1
  44:       415.76 cm**-1
  45:       421.37 cm**-1
  46:       425.59 cm**-1
  47:       439.39 cm**-1
  48:       459.74 cm**-1
  49:       462.45 cm**-1
  50:       480.45 cm**-1
  51:       491.42 cm**-1
  52:       505.12 cm**-1
  53:       514.16 cm**-1
  54:       537.45 cm**-1
  55:       563.69 cm**-1
  56:       589.58 cm**-1
  57:       602.74 cm**-1
  58:       621.65 cm**-1
  59:       668.90 cm**-1
  60:       723.66 cm**-1
  61:       732.22 cm**-1
  62:       782.42 cm**-1
  63:       814.93 cm**-1
  64:       823.51 cm**-1
  65:       830.53 cm**-1
  66:       864.88 cm**-1
  67:       867.71 cm**-1
  68:       874.13 cm**-1
  69:       887.76 cm**-1
  70:       897.10 cm**-1
  71:       900.08 cm**-1
  72:       920.98 cm**-1
  73:       949.33 cm**-1
  74:       951.71 cm**-1
  75:       953.44 cm**-1
  76:       994.49 cm**-1
  77:      1018.29 cm**-1
  78:      1042.85 cm**-1
  79:      1053.90 cm**-1
  80:      1058.22 cm**-1
  81:      1070.94 cm**-1
  82:      1088.00 cm**-1
  83:      1090.13 cm**-1
  84:      1092.18 cm**-1
  85:      1102.76 cm**-1
  86:      1115.39 cm**-1
  87:      1121.47 cm**-1
  88:      1136.65 cm**-1
  89:      1145.94 cm**-1
  90:      1157.76 cm**-1
  91:      1173.60 cm**-1
  92:      1197.64 cm**-1
  93:      1220.21 cm**-1
  94:      1237.80 cm**-1
  95:      1238.96 cm**-1
  96:      1248.43 cm**-1
  97:      1254.30 cm**-1
  98:      1263.27 cm**-1
  99:      1266.52 cm**-1
 100:      1276.09 cm**-1
 101:      1277.10 cm**-1
 102:      1286.84 cm**-1
 103:      1299.20 cm**-1
 104:      1304.72 cm**-1
 105:      1311.98 cm**-1
 106:      1320.11 cm**-1
 107:      1332.86 cm**-1
 108:      1341.47 cm**-1
 109:      1343.62 cm**-1
 110:      1353.36 cm**-1
 111:      1425.15 cm**-1
 112:      1447.30 cm**-1
 113:      1744.10 cm**-1
 114:      2843.34 cm**-1
 115:      2857.33 cm**-1
 116:      2871.36 cm**-1
 117:      2952.43 cm**-1
 118:      2956.01 cm**-1
 119:      2958.27 cm**-1
 120:      2969.41 cm**-1
 121:      2971.50 cm**-1
 122:      2981.37 cm**-1
 123:      3398.66 cm**-1
 124:      3442.65 cm**-1
 125:      3449.53 cm**-1
 126:      3494.16 cm**-1
 127:      3497.05 cm**-1
 128:      3522.93 cm**-1
 129:      3548.65 cm**-1
 130:      3620.98 cm**-1
 131:      3625.94 cm**-1

IR SPECTRUM
-----------

 Mode   freq       eps      Int      T**2         TX        TY        TZ
       cm**-1   L/(mol*cm) km/mol    a.u.
----------------------------------------------------------------------------
  6:      7.28   0.000079    0.40  0.003391  ( 0.014664 -0.043741  0.035539)
  7:     28.36   0.002025   10.23  0.022284  ( 0.120243  0.015150 -0.087154)
  8:     35.01   0.000301    1.52  0.002687  ( 0.050923 -0.003712 -0.008930)
  9:     50.38   0.000477    2.41  0.002952  ( 0.051247 -0.014452 -0.010813)
 10:     54.15   0.010607   53.60  0.061132  (-0.222903  0.043017  0.097958)
 11:     63.84   0.002115   10.69  0.010340  (-0.050398 -0.004081 -0.088222)
 12:     75.90   0.002347   11.86  0.009648  ( 0.062949  0.016014 -0.073680)
 13:     83.93   0.003620   18.30  0.013461  ( 0.107784  0.038582 -0.018840)
 14:     90.72   0.001243    6.28  0.004275  (-0.059675 -0.025985  0.006219)
 15:    100.14   0.000859    4.34  0.002676  (-0.002600  0.038984  0.033904)
 16:    114.45   0.001173    5.93  0.003198  ( 0.045550  0.002822 -0.033391)
 17:    125.46   0.000624    3.16  0.001553  ( 0.028151  0.007288  0.026596)
 18:    148.27   0.009417   47.59  0.019821  ( 0.026199 -0.095313 -0.100247)
 19:    156.80   0.002306   11.65  0.004589  (-0.008947  0.035165  0.057207)
 20:    178.89   0.001436    7.26  0.002505  (-0.044776 -0.014504  0.017029)
 21:    190.63   0.000591    2.99  0.000968  (-0.021386 -0.007005 -0.021482)
 22:    198.89   0.000210    1.06  0.000330  (-0.003055  0.011122  0.014024)
 23:    211.31   0.000618    3.12  0.000913  (-0.029234  0.006895 -0.003237)
 24:    222.06   0.000989    5.00  0.001390  (-0.009314  0.036038 -0.002173)
 25:    231.34   0.010058   50.83  0.013567  (-0.096077  0.046184 -0.046939)
 26:    235.57   0.003973   20.08  0.005263  ( 0.015271 -0.049350  0.050933)
 27:    240.39   0.000468    2.36  0.000608  (-0.012186 -0.013191  0.016882)
 28:    254.96   0.006627   33.49  0.008111  (-0.031164  0.060484 -0.059002)
 29:    276.05   0.002303   11.64  0.002603  ( 0.044236 -0.000793 -0.025413)
 30:    285.84   0.023402  118.26  0.025549  (-0.071330 -0.142114 -0.016258)
 31:    292.00   0.005576   28.18  0.005959  (-0.070835  0.013100 -0.027744)
 32:    302.71   0.014142   71.47  0.014579  (-0.105088  0.014371 -0.057695)
 33:    318.70   0.007816   39.50  0.007653  (-0.058461 -0.053421 -0.037170)
 34:    327.20   0.004073   20.58  0.003884  ( 0.052514  0.012887 -0.030992)
 35:    344.75   0.001402    7.08  0.001269  ( 0.019589  0.007935  0.028676)
 36:    349.33   0.008970   45.33  0.008013  (-0.065657  0.009755 -0.060058)
 37:    356.12   0.006638   33.54  0.005817  (-0.054746  0.052202  0.009725)
 38:    365.49   0.006208   31.37  0.005301  ( 0.066345  0.025473  0.015821)
 39:    369.40   0.005919   29.91  0.005000  (-0.047910 -0.052010  0.000124)
 40:    372.14   0.013123   66.32  0.011004  ( 0.008357  0.050729 -0.091439)
 41:    386.01   0.015941   80.56  0.012887  (-0.042216 -0.097101 -0.040943)
 42:    403.09   0.024235  122.47  0.018762  ( 0.092691 -0.099436 -0.016827)
 43:    407.22   0.019906  100.60  0.015254  ( 0.052643  0.034208 -0.106362)
 44:    415.76   0.029187  147.50  0.021908  ( 0.064493  0.098222  0.090005)
 45:    421.37   0.011902   60.15  0.008815  ( 0.032342  0.048950 -0.073298)
 46:    425.59   0.010865   54.91  0.007967  ( 0.018909  0.029221 -0.082191)
 47:    439.39   0.022902  115.74  0.016265  (-0.036315  0.047872  0.112494)
 48:    459.74   0.026838  135.63  0.018217  (-0.111781  0.044430 -0.061222)
 49:    462.45   0.013033   65.86  0.008794  (-0.065693  0.013582 -0.065532)
 50:    480.45   0.006265   31.66  0.004069  ( 0.034887  0.036998  0.038513)
 51:    491.42   0.002727   13.78  0.001732  ( 0.040401 -0.009975 -0.000508)
 52:    505.12   0.002863   14.47  0.001769  (-0.037296  0.019359  0.001715)
 53:    514.16   0.028599  144.53  0.017358  ( 0.123116 -0.043384  0.017836)
 54:    537.45   0.008535   43.13  0.004956  ( 0.067344  0.009457 -0.018198)
 55:    563.69   0.008254   41.71  0.004570  ( 0.047393 -0.015509  0.045640)
 56:    589.58   0.035498  179.39  0.018789  (-0.067216  0.106679 -0.053765)
 57:    602.74   0.002764   13.97  0.001431  (-0.014810  0.018102 -0.029733)
 58:    621.65   0.009132   46.15  0.004584  ( 0.066164 -0.007387  0.012328)
 59:    668.90   0.014617   73.87  0.006819  ( 0.019784  0.068548 -0.041581)
 60:    723.66   0.024874  125.70  0.010726  (-0.065885  0.077085 -0.021061)
 61:    732.22   0.045314  229.00  0.019312  ( 0.078843  0.066792  0.092924)
 62:    782.42   0.016059   81.15  0.006405  (-0.070490  0.035474 -0.013329)
 63:    814.93   0.008431   42.61  0.003229  (-0.019202 -0.052996 -0.007170)
 64:    823.51   0.028994  146.52  0.010987  ( 0.015317 -0.088590 -0.053892)
 65:    830.53   0.027899  140.99  0.010483  (-0.086768  0.050882 -0.019112)
 66:    864.88   0.034533  174.51  0.012460  (-0.063859 -0.068842  0.060355)
 67:    867.71   0.029489  149.02  0.010605  ( 0.072224 -0.002949 -0.073350)
 68:    874.13   0.045819  231.55  0.016357  ( 0.035460  0.084262 -0.089443)
 69:    887.76   0.034650  175.11  0.012180  ( 0.079501  0.065778 -0.039154)
 70:    897.10   0.024329  122.95  0.008463  (-0.089375 -0.017108 -0.013515)
 71:    900.08   0.014935   75.47  0.005178  (-0.044881 -0.039587 -0.039956)
 72:    920.98   0.000855    4.32  0.000290  (-0.016900 -0.001515  0.001328)
 73:    949.33   0.030693  155.11  0.010089  ( 0.088173 -0.009632 -0.047139)
 74:    951.71   0.141294  714.04  0.046330  (-0.083548  0.198132  0.009640)
 75:    953.44   0.029104  147.08  0.009526  ( 0.051103 -0.080585 -0.020507)
 76:    994.49   0.003756   18.98  0.001179  ( 0.011032  0.022837 -0.023141)
 77:   1018.29   0.006446   32.57  0.001975  ( 0.031897  0.010951 -0.028949)
 78:   1042.85   0.012317   62.24  0.003686  ( 0.017887 -0.025998  0.051863)
 79:   1053.90   0.016634   84.06  0.004925  (-0.035697  0.029936  0.052488)
 80:   1058.22   0.031156  157.45  0.009188  ( 0.092625  0.002479  0.024536)
 81:   1070.94   0.008532   43.11  0.002486  ( 0.040842 -0.012193  0.025871)
 82:   1088.00   0.023234  117.42  0.006664  ( 0.037135 -0.065930  0.030633)
 83:   1090.13   0.011619   58.72  0.003326  (-0.037804  0.034277  0.026868)
 84:   1092.18   0.003051   15.42  0.000872  ( 0.017399 -0.023192 -0.005589)
 85:   1102.76   0.009997   50.52  0.002829  ( 0.006027 -0.052569  0.005395)
 86:   1115.39   0.027572  139.34  0.007714  ( 0.072615 -0.038566 -0.030886)
 87:   1121.47   0.002877   14.54  0.000801  (-0.016884 -0.022669  0.001233)
 88:   1136.65   0.012720   64.28  0.003492  ( 0.011890  0.032636  0.047810)
 89:   1145.94   0.008488   42.89  0.002311  ( 0.012712  0.045186 -0.010397)
 90:   1157.76   0.010145   51.27  0.002735  (-0.045358  0.012865  0.022620)
 91:   1173.60   0.006703   33.87  0.001782  ( 0.005254 -0.030346  0.028874)
 92:   1197.64   0.002005   10.13  0.000523  ( 0.020824 -0.007117  0.006182)
 93:   1220.21   0.011350   57.36  0.002903  (-0.035928 -0.036278  0.017195)
 94:   1237.80   0.003767   19.04  0.000950  (-0.008120  0.009215 -0.028264)
 95:   1238.96   0.002583   13.05  0.000651  (-0.007740  0.001504 -0.024256)
 96:   1248.43   0.007779   39.31  0.001945  (-0.040290 -0.017881  0.001202)
 97:   1254.30   0.031129  157.31  0.007745  (-0.047604  0.070360 -0.022980)
 98:   1263.27   0.058534  295.81  0.014460  ( 0.030588 -0.074041 -0.089677)
 99:   1266.52   0.061962  313.13  0.015267  ( 0.070736  0.021401  0.099023)
100:   1276.09   0.030354  153.39  0.007423  (-0.059710  0.048543 -0.038744)
101:   1277.10   0.021186  107.07  0.005177  ( 0.044923 -0.029262  0.047985)
102:   1286.84   0.027989  141.45  0.006787  (-0.048380  0.053404  0.039936)
103:   1299.20   0.001284    6.49  0.000308  ( 0.005716 -0.004518  0.015977)
104:   1304.72   0.030723  155.26  0.007348  ( 0.037154  0.042897  0.064247)
105:   1311.98   0.002812   14.21  0.000669  (-0.016764  0.017955  0.008094)
106:   1320.11   0.007623   38.52  0.001802  ( 0.022849  0.032897  0.014061)
107:   1332.86   0.005150   26.03  0.001206  (-0.001952 -0.022936  0.025999)
108:   1341.47   0.004070   20.57  0.000947  ( 0.017272  0.023974 -0.008581)
109:   1343.62   0.003070   15.51  0.000713  ( 0.025159 -0.003082  0.008396)
110:   1353.36   0.002722   13.76  0.000628  (-0.012846  0.018651 -0.010714)
111:   1425.15   0.000046    0.23  0.000010  (-0.002335  0.001047  0.001857)
112:   1447.30   0.003137   15.85  0.000676  ( 0.005186 -0.019458 -0.016457)
113:   1744.10   0.066360  335.36  0.011874  ( 0.103191 -0.019245 -0.029239)
114:   2843.34   0.005615   28.38  0.000616  (-0.007689 -0.006914 -0.022569)
115:   2857.33   0.018084   91.39  0.001975  (-0.020617 -0.023443 -0.031630)
116:   2871.36   0.009375   47.38  0.001019  ( 0.005689  0.018024  0.025722)
117:   2952.43   0.007683   38.83  0.000812  (-0.017171  0.015073  0.017030)
118:   2956.01   0.000315    1.59  0.000033  (-0.002324  0.005130 -0.001260)
119:   2958.27   0.007405   37.42  0.000781  ( 0.004096 -0.007894 -0.026497)
120:   2969.41   0.011240   56.80  0.001181  ( 0.000451 -0.028411 -0.019336)
121:   2971.50   0.011019   55.69  0.001157  ( 0.022211  0.008236  0.024414)
122:   2981.37   0.002639   13.34  0.000276  (-0.010475  0.001302 -0.012836)
123:   3398.66   0.011838   59.83  0.001087  ( 0.006637  0.020249  0.025158)
124:   3442.65   0.011612   58.68  0.001053  (-0.023511 -0.021683 -0.005449)
125:   3449.53   0.005405   27.32  0.000489  ( 0.010860 -0.018091  0.006614)
126:   3494.16   0.011686   59.06  0.001044  (-0.003003 -0.032005 -0.003217)
127:   3497.05   0.028281  142.92  0.002524  ( 0.000860  0.050228 -0.000411)
128:   3522.93   0.005793   29.28  0.000513  (-0.022332  0.003473 -0.001556)
129:   3548.65   0.013286   67.14  0.001168  (-0.017904 -0.024665  0.015475)
130:   3620.98   0.019529   98.69  0.001683  (-0.039551 -0.010888  0.000525)
131:   3625.94   0.015077   76.19  0.001298  (-0.000006 -0.013603  0.033355)

--------------------------
THERMOCHEMISTRY AT 298.15K
--------------------------

Temperature         ... 298.15 K
Pressure            ... 1.00 atm
Total Mass          ... 428.18 AMU

Throughout the following assumptions are being made:
  (1) The electronic state is orbitally nondegenerate
  (2) There are no thermally accessible electronically excited states
  (3) Hindered rotations indicated by low frequency modes are not
      treated as such but are treated as vibrations and this may
      cause some error
  (4) All equations used are the standard statistical mechanics
      equations for an ideal gas
  (5) All vibrations are strictly harmonic

freq.       7.28  E(vib)   ...       0.58
freq.      28.36  E(vib)   ...       0.55
freq.      35.01  E(vib)   ...       0.54
freq.      50.38  E(vib)   ...       0.52
freq.      54.15  E(vib)   ...       0.52
freq.      63.84  E(vib)   ...       0.51
freq.      75.90  E(vib)   ...       0.49
freq.      83.93  E(vib)   ...       0.48
freq.      90.72  E(vib)   ...       0.47
freq.     100.14  E(vib)   ...       0.46
freq.     114.45  E(vib)   ...       0.44
freq.     125.46  E(vib)   ...       0.43
freq.     148.27  E(vib)   ...       0.41
freq.     156.80  E(vib)   ...       0.40
freq.     178.89  E(vib)   ...       0.37
freq.     190.63  E(vib)   ...       0.36
freq.     198.89  E(vib)   ...       0.35
freq.     211.31  E(vib)   ...       0.34
freq.     222.06  E(vib)   ...       0.33
freq.     231.34  E(vib)   ...       0.32
freq.     235.57  E(vib)   ...       0.32
freq.     240.39  E(vib)   ...       0.31
freq.     254.96  E(vib)   ...       0.30
freq.     276.05  E(vib)   ...       0.28
freq.     285.84  E(vib)   ...       0.27
freq.     292.00  E(vib)   ...       0.27
freq.     302.71  E(vib)   ...       0.26
freq.     318.70  E(vib)   ...       0.25
freq.     327.20  E(vib)   ...       0.24
freq.     344.75  E(vib)   ...       0.23
freq.     349.33  E(vib)   ...       0.23
freq.     356.12  E(vib)   ...       0.22
freq.     365.49  E(vib)   ...       0.22
freq.     369.40  E(vib)   ...       0.21
freq.     372.14  E(vib)   ...       0.21
freq.     386.01  E(vib)   ...       0.20
freq.     403.09  E(vib)   ...       0.19
freq.     407.22  E(vib)   ...       0.19
freq.     415.76  E(vib)   ...       0.18
freq.     421.37  E(vib)   ...       0.18
freq.     425.59  E(vib)   ...       0.18
freq.     439.39  E(vib)   ...       0.17
freq.     459.74  E(vib)   ...       0.16
freq.     462.45  E(vib)   ...       0.16
freq.     480.45  E(vib)   ...       0.15
freq.     491.42  E(vib)   ...       0.14
freq.     505.12  E(vib)   ...       0.14
freq.     514.16  E(vib)   ...       0.13
freq.     537.45  E(vib)   ...       0.12
freq.     563.69  E(vib)   ...       0.11
freq.     589.58  E(vib)   ...       0.10
freq.     602.74  E(vib)   ...       0.10
freq.     621.65  E(vib)   ...       0.09
freq.     668.90  E(vib)   ...       0.08
freq.     723.66  E(vib)   ...       0.06
freq.     732.22  E(vib)   ...       0.06
freq.     782.42  E(vib)   ...       0.05
freq.     814.93  E(vib)   ...       0.05
freq.     823.51  E(vib)   ...       0.05
freq.     830.53  E(vib)   ...       0.04
freq.     864.88  E(vib)   ...       0.04
freq.     867.71  E(vib)   ...       0.04
freq.     874.13  E(vib)   ...       0.04
freq.     887.76  E(vib)   ...       0.04
freq.     897.10  E(vib)   ...       0.03
freq.     900.08  E(vib)   ...       0.03
freq.     920.98  E(vib)   ...       0.03
freq.     949.33  E(vib)   ...       0.03
freq.     951.71  E(vib)   ...       0.03
freq.     953.44  E(vib)   ...       0.03
freq.     994.49  E(vib)   ...       0.02
freq.    1018.29  E(vib)   ...       0.02
freq.    1042.85  E(vib)   ...       0.02
freq.    1053.90  E(vib)   ...       0.02
freq.    1058.22  E(vib)   ...       0.02
freq.    1070.94  E(vib)   ...       0.02
freq.    1088.00  E(vib)   ...       0.02
freq.    1090.13  E(vib)   ...       0.02
freq.    1092.18  E(vib)   ...       0.02
freq.    1102.76  E(vib)   ...       0.02
freq.    1115.39  E(vib)   ...       0.01
freq.    1121.47  E(vib)   ...       0.01
freq.    1136.65  E(vib)   ...       0.01
freq.    1145.94  E(vib)   ...       0.01
freq.    1157.76  E(vib)   ...       0.01
freq.    1173.60  E(vib)   ...       0.01
freq.    1197.64  E(vib)   ...       0.01
freq.    1220.21  E(vib)   ...       0.01
freq.    1237.80  E(vib)   ...       0.01
freq.    1238.96  E(vib)   ...       0.01
freq.    1248.43  E(vib)   ...       0.01
freq.    1254.30  E(vib)   ...       0.01
freq.    1263.27  E(vib)   ...       0.01
freq.    1266.52  E(vib)   ...       0.01
freq.    1276.09  E(vib)   ...       0.01
freq.    1277.10  E(vib)   ...       0.01
freq.    1286.84  E(vib)   ...       0.01
freq.    1299.20  E(vib)   ...       0.01
freq.    1304.72  E(vib)   ...       0.01
freq.    1311.98  E(vib)   ...       0.01
freq.    1320.11  E(vib)   ...       0.01
freq.    1332.86  E(vib)   ...       0.01
freq.    1341.47  E(vib)   ...       0.01
freq.    1343.62  E(vib)   ...       0.01
freq.    1353.36  E(vib)   ...       0.01
freq.    1425.15  E(vib)   ...       0.00
freq.    1447.30  E(vib)   ...       0.00
freq.    1744.10  E(vib)   ...       0.00
freq.    2843.34  E(vib)   ...       0.00
freq.    2857.33  E(vib)   ...       0.00
freq.    2871.36  E(vib)   ...       0.00
freq.    2952.43  E(vib)   ...       0.00
freq.    2956.01  E(vib)   ...       0.00
freq.    2958.27  E(vib)   ...       0.00
freq.    2969.41  E(vib)   ...       0.00
freq.    2971.50  E(vib)   ...       0.00
freq.    2981.37  E(vib)   ...       0.00
freq.    3398.66  E(vib)   ...       0.00
freq.    3442.65  E(vib)   ...       0.00
freq.    3449.53  E(vib)   ...       0.00
freq.    3494.16  E(vib)   ...       0.00
freq.    3497.05  E(vib)   ...       0.00
freq.    3522.93  E(vib)   ...       0.00
freq.    3548.65  E(vib)   ...       0.00
freq.    3620.98  E(vib)   ...       0.00
freq.    3625.94  E(vib)   ...       0.00

------------
INNER ENERGY
------------

The inner energy is: U= E(el) + E(ZPE) + E(vib) + E(rot) + E(trans)
    E(el)   - is the total energy from the electronic structure calculation
              = E(kin-el) + E(nuc-el) + E(el-el) + E(nuc-nuc)
    E(ZPE)  - the the zero temperature vibrational energy from the frequency calculation
    E(vib)  - the the finite temperature correction to E(ZPE) due to population
              of excited vibrational states
    E(rot)  - is the rotational thermal energy
    E(trans)- is the translational thermal energy

Summary of contributions to the inner energy U:
Electronic energy                ...    -94.79879407 Eh
Zero point energy                ...      0.30674117 Eh     192.48 kcal/mol
Thermal vibrational correction   ...      0.02644325 Eh      16.59 kcal/mol

Rotational constants in cm-1:     0.008329     0.004622     0.003275

                             ****ORCA TERMINATED NORMALLY****
TOTAL RUN TIME: 0 days 0 hours 11 minutes 8 seconds 748 msec
