                         Program Version 5.0.3 -  RELEASE  -
|  1> ! XTB2 opt numfreq
|  2> * XYZ 0 1
|  3> O 0.8927 -1.5985 1.1729
|  4> C 1.0583 -1.2399 0.0138
|  5> O 2.0934 -0.4094 -0.2663
|  6> C 2.0542 0.4388 -1.4330
|  7> C 2.8739 1.6898 -1.0809
|  8> O 2.1815 2.4257 -0.0777
|  9> P 2.8244 2.5739 1.3842
| 10> O 1.9653 3.2198 2.4122
| 11> O 3.3091 1.1089 1.7782
| 12> O 4.2091 3.3245 1.1148
| 13> C 0.5991 0.7788 -1.7671
| 14> O 0.4707 1.7026 -2.8523
| 15> C -0.1302 -0.5172 -2.1397
| 16> O -1.5299 -0.2261 -2.2245
| 17> C 0.2136 -1.6921 -1.1917
| 18> O 1.1118 -2.5571 -1.9566
| 19> C -1.0031 -2.5699 -0.7920
| 20> O -0.5070 -3.9218 -0.5495
| 21> C -1.8519 -2.1749 0.4360
| 22> O -2.9249 -3.1476 0.5293
| 23> C -2.4633 -0.7809 0.4072
| 24> O -3.0803 -0.5350 1.6699
| 25> P -2.8970 0.9162 2.3229
| 26> O -3.5478 1.1347 3.6435
| 27> O -1.3222 1.2001 2.3286
| 28> O -3.4189 1.9290 1.2056
| 29> H 2.5525 -0.0810 -2.2622
| 30> H 2.9914 2.3396 -1.9554
| 31> H 3.8753 1.4092 -0.7330
| 32> H 2.5693 0.5494 2.0883
| 33> H 4.6611 3.5345 1.9488
| 34> H 0.0872 1.2263 -0.9037
| 35> H 0.6962 2.5893 -2.5100
| 36> H 0.1552 -0.7934 -3.1638
| 37> H -1.6075 0.4746 -2.9036
| 38> H 1.0111 -3.4379 -1.5294
| 39> H -1.6594 -2.6989 -1.6608
| 40> H -1.2915 -4.4025 -0.2040
| 41> H -1.2974 -2.3269 1.3678
| 42> H -3.4939 -2.8347 1.2600
| 43> H -3.2498 -0.7157 -0.3503
| 44> H -1.7020 -0.0245 0.2168
| 45> H -1.1239 1.9643 2.9171
| 46> H -4.3547 2.1561 1.3551
| 47> *
| 48>
| 49>                          ****END OF INPUT****
FINAL SINGLE POINT ENERGY       -94.779433694970
FINAL SINGLE POINT ENERGY       -94.793724327790
FINAL SINGLE POINT ENERGY       -94.798389023290
FINAL SINGLE POINT ENERGY       -94.799929562490
FINAL SINGLE POINT ENERGY       -94.801411426900
FINAL SINGLE POINT ENERGY       -94.802421309440
FINAL SINGLE POINT ENERGY       -94.803433073040
FINAL SINGLE POINT ENERGY       -94.804413553250
FINAL SINGLE POINT ENERGY       -94.805445341230
FINAL SINGLE POINT ENERGY       -94.806478766170
FINAL SINGLE POINT ENERGY       -94.816363723590
FINAL SINGLE POINT ENERGY       -94.816403086780
FINAL SINGLE POINT ENERGY       -94.816449105460
FINAL SINGLE POINT ENERGY       -94.816465632700
FINAL SINGLE POINT ENERGY       -94.816487163790
FINAL SINGLE POINT ENERGY       -94.816497342280
FINAL SINGLE POINT ENERGY       -94.816505472150
FINAL SINGLE POINT ENERGY       -94.816509690570
FINAL SINGLE POINT ENERGY       -94.816511532870
                    ***********************HURRAY********************

CARTESIAN COORDINATES (ANGSTROEM)
---------------------------------
  O     1.385176   -2.410137    0.591567
  C     1.205027   -1.603839   -0.281671
  O     1.996510   -0.518354   -0.296540
  C     1.851979    0.502897   -1.269536
  C     2.498538    1.766560   -0.694399
  O     1.727482    2.239924    0.392832
  P     2.241362    2.088956    1.892287
  O     1.152613    2.307558    2.849831
  O     3.040269    0.726564    2.008197
  O     3.425108    3.137491    1.987692
  C     0.358652    0.686803   -1.568241
  O     0.105388    1.768258   -2.430353
  C    -0.126023   -0.592240   -2.262229
  O    -1.493459   -0.492530   -2.560443
  C     0.177087   -1.839105   -1.404744
  O     0.783193   -2.797202   -2.241382
  C    -1.105436   -2.480661   -0.770519
  O    -0.838585   -3.823885   -0.505801
  C    -1.568757   -1.708507    0.489832
  O    -1.822396   -2.646899    1.506714
  C    -2.801625   -0.841289    0.229029
  O    -3.063961    0.001499    1.340101
  P    -2.247275    1.347309    1.596633
  O    -2.837707    2.171532    2.639127
  O    -0.751422    0.870714    1.786975
  O    -2.199967    2.073420    0.148160
  H     2.385205    0.214986   -2.185819
  H     2.516767    2.547281   -1.458796
  H     3.517082    1.539877   -0.374049
  H     2.529221   -0.073552    1.867662
  H     3.497763    3.477930    2.877865
  H    -0.176918    0.814967   -0.620542
  H     0.032905    2.570323   -1.902082
  H     0.443925   -0.709647   -3.198516
  H    -1.604358    0.342454   -3.036542
  H     0.481902   -3.669342   -1.920960
  H    -1.886784   -2.469768   -1.536534
  H    -0.469011   -3.887162    0.387887
  H    -0.764820   -1.038046    0.820066
  H    -2.239035   -2.176883    2.238640
  H    -3.683769   -1.478720    0.122052
  H    -2.657838   -0.251287   -0.677210
  H    -0.203125    1.504707    2.302627
  H    -2.811086    2.807247    0.186634

FINAL SINGLE POINT ENERGY       -94.816512297890

VIBRATIONAL FREQUENCIES
-----------------------

Scaling factor for frequencies =  1.000000000 (already applied!)

   0:         0.00 cm**-1
   1:         0.00 cm**-1
   2:         0.00 cm**-1
   3:         0.00 cm**-1
   4:         0.00 cm**-1
   5:         0.00 cm**-1
   6:        17.23 cm**-1
   7:        29.27 cm**-1
   8:        32.18 cm**-1
   9:        45.41 cm**-1
  10:        51.89 cm**-1
  11:        53.55 cm**-1
  12:        68.68 cm**-1
  13:        95.03 cm**-1
  14:       100.40 cm**-1
  15:       102.63 cm**-1
  16:       120.01 cm**-1
  17:       136.81 cm**-1
  18:       150.97 cm**-1
  19:       160.43 cm**-1
  20:       168.26 cm**-1
  21:       180.66 cm**-1
  22:       185.37 cm**-1
  23:       211.19 cm**-1
  24:       230.03 cm**-1
  25:       239.03 cm**-1
  26:       252.98 cm**-1
  27:       257.92 cm**-1
  28:       261.90 cm**-1
  29:       273.65 cm**-1
  30:       285.02 cm**-1
  31:       292.87 cm**-1
  32:       313.39 cm**-1
  33:       322.10 cm**-1
  34:       326.44 cm**-1
  35:       331.13 cm**-1
  36:       339.02 cm**-1
  37:       354.35 cm**-1
  38:       356.33 cm**-1
  39:       364.36 cm**-1
  40:       373.83 cm**-1
  41:       386.10 cm**-1
  42:       393.92 cm**-1
  43:       409.84 cm**-1
  44:       414.71 cm**-1
  45:       424.30 cm**-1
  46:       435.63 cm**-1
  47:       443.88 cm**-1
  48:       447.14 cm**-1
  49:       464.45 cm**-1
  50:       474.30 cm**-1
  51:       494.52 cm**-1
  52:       508.46 cm**-1
  53:       518.31 cm**-1
  54:       549.82 cm**-1
  55:       593.55 cm**-1
  56:       624.90 cm**-1
  57:       650.59 cm**-1
  58:       704.19 cm**-1
  59:       718.47 cm**-1
  60:       722.37 cm**-1
  61:       733.84 cm**-1
  62:       754.52 cm**-1
  63:       780.33 cm**-1
  64:       788.43 cm**-1
  65:       833.21 cm**-1
  66:       858.31 cm**-1
  67:       868.93 cm**-1
  68:       898.83 cm**-1
  69:       909.28 cm**-1
  70:       915.44 cm**-1
  71:       919.22 cm**-1
  72:       933.96 cm**-1
  73:       952.67 cm**-1
  74:       991.98 cm**-1
  75:      1009.31 cm**-1
  76:      1026.77 cm**-1
  77:      1042.98 cm**-1
  78:      1050.59 cm**-1
  79:      1062.86 cm**-1
  80:      1076.19 cm**-1
  81:      1086.70 cm**-1
  82:      1094.45 cm**-1
  83:      1103.20 cm**-1
  84:      1121.17 cm**-1
  85:      1122.88 cm**-1
  86:      1134.84 cm**-1
  87:      1140.40 cm**-1
  88:      1143.60 cm**-1
  89:      1180.75 cm**-1
  90:      1194.32 cm**-1
  91:      1207.61 cm**-1
  92:      1210.58 cm**-1
  93:      1214.27 cm**-1
  94:      1224.60 cm**-1
  95:      1237.76 cm**-1
  96:      1241.22 cm**-1
  97:      1246.86 cm**-1
  98:      1263.82 cm**-1
  99:      1269.75 cm**-1
 100:      1290.03 cm**-1
 101:      1298.84 cm**-1
 102:      1301.40 cm**-1
 103:      1304.74 cm**-1
 104:      1310.60 cm**-1
 105:      1319.54 cm**-1
 106:      1324.48 cm**-1
 107:      1342.14 cm**-1
 108:      1347.85 cm**-1
 109:      1355.69 cm**-1
 110:      1360.68 cm**-1
 111:      1435.03 cm**-1
 112:      1442.66 cm**-1
 113:      1751.58 cm**-1
 114:      2864.80 cm**-1
 115:      2901.75 cm**-1
 116:      2915.94 cm**-1
 117:      2953.28 cm**-1
 118:      2963.75 cm**-1
 119:      2965.80 cm**-1
 120:      2966.56 cm**-1
 121:      2975.56 cm**-1
 122:      2983.13 cm**-1
 123:      3027.79 cm**-1
 124:      3307.09 cm**-1
 125:      3461.36 cm**-1
 126:      3484.90 cm**-1
 127:      3531.69 cm**-1
 128:      3552.58 cm**-1
 129:      3554.92 cm**-1
 130:      3627.11 cm**-1
 131:      3638.84 cm**-1

IR SPECTRUM
-----------

 Mode   freq       eps      Int      T**2         TX        TY        TZ
       cm**-1   L/(mol*cm) km/mol    a.u.
----------------------------------------------------------------------------
  6:     17.23   0.000190    0.96  0.003445  (-0.001818  0.058495  0.004436)
  7:     29.27   0.000257    1.30  0.002736  ( 0.024230 -0.046277 -0.002689)
  8:     32.18   0.000386    1.95  0.003745  (-0.037833 -0.048079 -0.001380)
  9:     45.41   0.000594    3.00  0.004082  (-0.023922 -0.012565  0.057895)
 10:     51.89   0.000462    2.33  0.002778  (-0.040939 -0.031106  0.011582)
 11:     53.55   0.000849    4.29  0.004949  (-0.036643  0.057491  0.017363)
 12:     68.68   0.000148    0.75  0.000672  (-0.013348 -0.004858 -0.021690)
 13:     95.03   0.000506    2.56  0.001661  (-0.022130  0.030346 -0.015812)
 14:    100.40   0.000684    3.45  0.002125  ( 0.025295  0.036125 -0.013414)
 15:    102.63   0.001078    5.45  0.003277  (-0.026567 -0.001827 -0.050675)
 16:    120.01   0.001538    7.77  0.004001  (-0.057316  0.026433 -0.004094)
 17:    136.81   0.005709   28.85  0.013021  (-0.070787  0.076695 -0.046134)
 18:    150.97   0.002052   10.37  0.004242  ( 0.047419 -0.024397  0.037399)
 19:    160.43   0.008629   43.61  0.016785  ( 0.084517 -0.082662  0.053001)
 20:    168.26   0.010621   53.67  0.019698  ( 0.133269 -0.033918  0.028047)
 21:    180.66   0.000371    1.87  0.000641  (-0.008301  0.013561 -0.019691)
 22:    185.37   0.001837    9.28  0.003093  (-0.049986  0.024370 -0.000036)
 23:    211.19   0.000617    3.12  0.000911  ( 0.015612 -0.000826  0.025821)
 24:    230.03   0.003495   17.66  0.004742  (-0.047059 -0.029670 -0.040582)
 25:    239.03   0.001866    9.43  0.002436  (-0.013547 -0.046223 -0.010778)
 26:    252.98   0.003825   19.33  0.004718  ( 0.008825 -0.049271 -0.047041)
 27:    257.92   0.005247   26.52  0.006348  ( 0.059341  0.021848  0.048474)
 28:    261.90   0.001470    7.43  0.001751  ( 0.037671 -0.017829  0.003745)
 29:    273.65   0.005744   29.03  0.006550  (-0.018380 -0.034613 -0.070813)
 30:    285.02   0.011936   60.32  0.013069  (-0.072886  0.009239  0.087585)
 31:    292.87   0.010933   55.25  0.011649  (-0.066867 -0.007772  0.084367)
 32:    313.39   0.009278   46.89  0.009239  (-0.067679 -0.037029 -0.057338)
 33:    322.10   0.013210   66.76  0.012799  (-0.112748 -0.009103 -0.001947)
 34:    326.44   0.000548    2.77  0.000523  (-0.019191 -0.009220  0.008377)
 35:    331.13   0.001937    9.79  0.001826  ( 0.021854  0.033984  0.013893)
 36:    339.02   0.006345   32.07  0.005841  ( 0.016528  0.044600 -0.059820)
 37:    354.35   0.000979    4.95  0.000862  ( 0.026077  0.011513 -0.007045)
 38:    356.33   0.021252  107.40  0.018612  (-0.115655 -0.047471 -0.054611)
 39:    364.36   0.003838   19.40  0.003287  (-0.037047 -0.008794 -0.042863)
 40:    373.83   0.026256  132.69  0.021918  (-0.147070 -0.014523  0.008781)
 41:    386.10   0.000375    1.89  0.000303  (-0.003967 -0.004489  0.016344)
 42:    393.92   0.010068   50.88  0.007976  (-0.006945  0.042923  0.078009)
 43:    409.84   0.007753   39.18  0.005903  ( 0.066927  0.037637 -0.002746)
 44:    414.71   0.024647  124.56  0.018547  (-0.055976 -0.121561 -0.025228)
 45:    424.30   0.040606  205.21  0.029865  ( 0.046209 -0.028772  0.164017)
 46:    435.63   0.017490   88.38  0.012529  ( 0.065504  0.049797 -0.075883)
 47:    443.88   0.018303   92.50  0.012868  (-0.093458  0.052891  0.036554)
 48:    447.14   0.007291   36.85  0.005089  (-0.067355  0.016005  0.017201)
 49:    464.45   0.018754   94.77  0.012601  (-0.033679 -0.072240 -0.079043)
 50:    474.30   0.000577    2.92  0.000380  (-0.019058 -0.003279  0.002413)
 51:    494.52   0.003401   17.19  0.002146  (-0.039364 -0.004840 -0.023938)
 52:    508.46   0.003559   17.99  0.002184  ( 0.028745 -0.021160  0.030173)
 53:    518.31   0.039651  200.38  0.023873  ( 0.151663  0.003904  0.029262)
 54:    549.82   0.002166   10.94  0.001229  (-0.015072 -0.031623 -0.001437)
 55:    593.55   0.008158   41.23  0.004289  (-0.043774  0.015359 -0.046228)
 56:    624.90   0.002488   12.57  0.001243  (-0.022015  0.022763 -0.015486)
 57:    650.59   0.011862   59.94  0.005690  (-0.070822 -0.022176 -0.013491)
 58:    704.19   0.008204   41.46  0.003635  ( 0.027724  0.052143 -0.012160)
 59:    718.47   0.005581   28.20  0.002424  ( 0.039056 -0.013936 -0.026541)
 60:    722.37   0.019288   97.47  0.008332  ( 0.050764 -0.034474 -0.067578)
 61:    733.84   0.019374   97.91  0.008239  (-0.082107 -0.032496 -0.021005)
 62:    754.52   0.012329   62.30  0.005099  ( 0.011878  0.015788  0.068620)
 63:    780.33   0.018816   95.09  0.007525  (-0.067486 -0.050236  0.021133)
 64:    788.43   0.049058  247.92  0.019417  ( 0.065156  0.090138 -0.083948)
 65:    833.21   0.015453   78.09  0.005788  ( 0.015189  0.009848  0.073891)
 66:    858.31   0.051527  260.40  0.018734  ( 0.087413  0.092086  0.051120)
 67:    868.93   0.082295  415.89  0.029555  ( 0.108341 -0.104979  0.082442)
 68:    898.83   0.022538  113.90  0.007825  ( 0.032192 -0.057440  0.059071)
 69:    909.28   0.062134  314.00  0.021324  (-0.130926 -0.049455 -0.041674)
 70:    915.44   0.040226  203.28  0.013712  (-0.095859 -0.049323  0.045726)
 71:    919.22   0.014112   71.32  0.004791  ( 0.010511 -0.051287  0.045278)
 72:    933.96   0.012599   63.67  0.004210  (-0.051559  0.003044 -0.039271)
 73:    952.67   0.011908   60.18  0.003901  (-0.013237 -0.012367 -0.059770)
 74:    991.98   0.009776   49.40  0.003075  ( 0.010000  0.031841  0.044289)
 75:   1009.31   0.002749   13.89  0.000850  (-0.015422  0.017431  0.017556)
 76:   1026.77   0.015225   76.94  0.004627  (-0.033595  0.000762  0.059144)
 77:   1042.98   0.018845   95.23  0.005639  ( 0.071992 -0.021135  0.002993)
 78:   1050.59   0.006762   34.17  0.002008  ( 0.021741 -0.015140  0.036147)
 79:   1062.86   0.020264  102.41  0.005950  (-0.063382  0.020148  0.039070)
 80:   1076.19   0.005516   27.88  0.001600  ( 0.028829 -0.025876  0.009943)
 81:   1086.70   0.049793  251.63  0.014299  ( 0.024401 -0.102934 -0.055751)
 82:   1094.45   0.040144  202.87  0.011446  (-0.045415  0.096216  0.011249)
 83:   1103.20   0.010716   54.16  0.003031  (-0.017492 -0.012375 -0.050718)
 84:   1121.17   0.005135   25.95  0.001429  (-0.016261 -0.032077  0.011657)
 85:   1122.88   0.008315   42.02  0.002311  (-0.015925 -0.042558 -0.015690)
 86:   1134.84   0.005792   29.27  0.001593  (-0.007806 -0.026036  0.029220)
 87:   1140.40   0.038124  192.66  0.010432  ( 0.000171  0.073403 -0.071024)
 88:   1143.60   0.010104   51.06  0.002757  (-0.009752 -0.044764  0.025656)
 89:   1180.75   0.046305  234.01  0.012238  (-0.088463 -0.061384 -0.025381)
 90:   1194.32   0.015266   77.15  0.003989  (-0.001070  0.062892 -0.005689)
 91:   1207.61   0.006914   34.94  0.001787  (-0.017484 -0.015651  0.035156)
 92:   1210.58   0.002106   10.64  0.000543  ( 0.003482 -0.022942 -0.002092)
 93:   1214.27   0.003174   16.04  0.000816  ( 0.002120 -0.006054  0.027830)
 94:   1224.60   0.025511  128.92  0.006501  (-0.070631 -0.038727  0.003534)
 95:   1237.76   0.011063   55.91  0.002789  ( 0.002493 -0.030820  0.042813)
 96:   1241.22   0.009639   48.71  0.002423  (-0.041313 -0.025280 -0.008810)
 97:   1246.86   0.099086  500.74  0.024799  ( 0.131532 -0.016772 -0.084954)
 98:   1263.82   0.016035   81.04  0.003959  (-0.023759  0.054031  0.021807)
 99:   1269.75   0.016778   84.79  0.004123  (-0.016382 -0.057596  0.023190)
100:   1290.03   0.010984   55.51  0.002657  ( 0.035267  0.007573 -0.036822)
101:   1298.84   0.018494   93.46  0.004443  ( 0.012115 -0.031631 -0.057412)
102:   1301.40   0.076357  385.88  0.018310  (-0.072444  0.052204  0.101668)
103:   1304.74   0.006707   33.89  0.001604  ( 0.031680 -0.024425  0.001975)
104:   1310.60   0.003908   19.75  0.000931  ( 0.011578 -0.004559  0.027851)
105:   1319.54   0.002810   14.20  0.000665  (-0.012141 -0.022691  0.001519)
106:   1324.48   0.000184    0.93  0.000043  ( 0.001250 -0.004752 -0.004384)
107:   1342.14   0.004182   21.13  0.000972  ( 0.022447  0.019822 -0.008692)
108:   1347.85   0.001468    7.42  0.000340  ( 0.015142  0.007346 -0.007531)
109:   1355.69   0.011252   56.86  0.002590  ( 0.012789 -0.045219 -0.019540)
110:   1360.68   0.007495   37.87  0.001719  ( 0.026320 -0.032032 -0.000099)
111:   1435.03   0.001191    6.02  0.000259  (-0.015905 -0.000081 -0.002451)
112:   1442.66   0.000482    2.44  0.000104  (-0.008902 -0.002631 -0.004254)
113:   1751.58   0.074324  375.60  0.013242  ( 0.015502 -0.084547  0.076506)
114:   2864.80   0.003634   18.37  0.000396  (-0.013346  0.000463  0.014750)
115:   2901.75   0.007422   37.51  0.000798  ( 0.012229 -0.000504 -0.025464)
116:   2915.94   0.006168   31.17  0.000660  ( 0.025634 -0.000342 -0.001702)
117:   2953.28   0.000415    2.10  0.000044  (-0.004459 -0.001001  0.004796)
118:   2963.75   0.002042   10.32  0.000215  ( 0.013070  0.003385 -0.005724)
119:   2965.80   0.001358    6.86  0.000143  (-0.003294 -0.003150  0.011050)
120:   2966.56   0.003225   16.30  0.000339  (-0.015226 -0.001255 -0.010287)
121:   2975.56   0.000672    3.40  0.000070  ( 0.007509 -0.001995 -0.003177)
122:   2983.13   0.001205    6.09  0.000126  (-0.001674  0.000819 -0.011072)
123:   3027.79   0.261780  1322.93  0.026981  ( 0.135759  0.070952  0.059297)
124:   3307.09   0.036502  184.47  0.003444  (-0.015888 -0.052078  0.021906)
125:   3461.36   0.013148   66.45  0.001185  (-0.008370  0.001978 -0.033338)
126:   3484.90   0.010006   50.57  0.000896  ( 0.006036 -0.024517  0.016077)
127:   3531.69   0.009759   49.32  0.000862  ( 0.014512 -0.023504 -0.009965)
128:   3552.58   0.013751   69.49  0.001208  (-0.021464 -0.025927 -0.008658)
129:   3554.92   0.010326   52.18  0.000906  ( 0.002098 -0.027495 -0.012086)
130:   3627.11   0.022568  114.05  0.001942  (-0.004616 -0.019476 -0.039256)
131:   3638.84   0.009911   50.09  0.000850  ( 0.015855 -0.024433 -0.001266)

--------------------------
THERMOCHEMISTRY AT 298.15K
--------------------------

Temperature         ... 298.15 K
Pressure            ... 1.00 atm
Total Mass          ... 428.18 AMU

Throughout the following assumptions are being made:
  (1) The electronic state is orbitally nondegenerate
  (2) There are no thermally accessible electronically excited states
  (3) Hindered rotations indicated by low frequency modes are not
      treated as such but are treated as vibrations and this may
      cause some error
  (4) All equations used are the standard statistical mechanics
      equations for an ideal gas
  (5) All vibrations are strictly harmonic

freq.      17.23  E(vib)   ...       0.57
freq.      29.27  E(vib)   ...       0.55
freq.      32.18  E(vib)   ...       0.55
freq.      45.41  E(vib)   ...       0.53
freq.      51.89  E(vib)   ...       0.52
freq.      53.55  E(vib)   ...       0.52
freq.      68.68  E(vib)   ...       0.50
freq.      95.03  E(vib)   ...       0.47
freq.     100.40  E(vib)   ...       0.46
freq.     102.63  E(vib)   ...       0.46
freq.     120.01  E(vib)   ...       0.44
freq.     136.81  E(vib)   ...       0.42
freq.     150.97  E(vib)   ...       0.40
freq.     160.43  E(vib)   ...       0.39
freq.     168.26  E(vib)   ...       0.38
freq.     180.66  E(vib)   ...       0.37
freq.     185.37  E(vib)   ...       0.37
freq.     211.19  E(vib)   ...       0.34
freq.     230.03  E(vib)   ...       0.32
freq.     239.03  E(vib)   ...       0.32
freq.     252.98  E(vib)   ...       0.30
freq.     257.92  E(vib)   ...       0.30
freq.     261.90  E(vib)   ...       0.29
freq.     273.65  E(vib)   ...       0.28
freq.     285.02  E(vib)   ...       0.28
freq.     292.87  E(vib)   ...       0.27
freq.     313.39  E(vib)   ...       0.25
freq.     322.10  E(vib)   ...       0.25
freq.     326.44  E(vib)   ...       0.24
freq.     331.13  E(vib)   ...       0.24
freq.     339.02  E(vib)   ...       0.23
freq.     354.35  E(vib)   ...       0.22
freq.     356.33  E(vib)   ...       0.22
freq.     364.36  E(vib)   ...       0.22
freq.     373.83  E(vib)   ...       0.21
freq.     386.10  E(vib)   ...       0.20
freq.     393.92  E(vib)   ...       0.20
freq.     409.84  E(vib)   ...       0.19
freq.     414.71  E(vib)   ...       0.19
freq.     424.30  E(vib)   ...       0.18
freq.     435.63  E(vib)   ...       0.17
freq.     443.88  E(vib)   ...       0.17
freq.     447.14  E(vib)   ...       0.17
freq.     464.45  E(vib)   ...       0.16
freq.     474.30  E(vib)   ...       0.15
freq.     494.52  E(vib)   ...       0.14
freq.     508.46  E(vib)   ...       0.14
freq.     518.31  E(vib)   ...       0.13
freq.     549.82  E(vib)   ...       0.12
freq.     593.55  E(vib)   ...       0.10
freq.     624.90  E(vib)   ...       0.09
freq.     650.59  E(vib)   ...       0.08
freq.     704.19  E(vib)   ...       0.07
freq.     718.47  E(vib)   ...       0.07
freq.     722.37  E(vib)   ...       0.07
freq.     733.84  E(vib)   ...       0.06
freq.     754.52  E(vib)   ...       0.06
freq.     780.33  E(vib)   ...       0.05
freq.     788.43  E(vib)   ...       0.05
freq.     833.21  E(vib)   ...       0.04
freq.     858.31  E(vib)   ...       0.04
freq.     868.93  E(vib)   ...       0.04
freq.     898.83  E(vib)   ...       0.03
freq.     909.28  E(vib)   ...       0.03
freq.     915.44  E(vib)   ...       0.03
freq.     919.22  E(vib)   ...       0.03
freq.     933.96  E(vib)   ...       0.03
freq.     952.67  E(vib)   ...       0.03
freq.     991.98  E(vib)   ...       0.02
freq.    1009.31  E(vib)   ...       0.02
freq.    1026.77  E(vib)   ...       0.02
freq.    1042.98  E(vib)   ...       0.02
freq.    1050.59  E(vib)   ...       0.02
freq.    1062.86  E(vib)   ...       0.02
freq.    1076.19  E(vib)   ...       0.02
freq.    1086.70  E(vib)   ...       0.02
freq.    1094.45  E(vib)   ...       0.02
freq.    1103.20  E(vib)   ...       0.02
freq.    1121.17  E(vib)   ...       0.01
freq.    1122.88  E(vib)   ...       0.01
freq.    1134.84  E(vib)   ...       0.01
freq.    1140.40  E(vib)   ...       0.01
freq.    1143.60  E(vib)   ...       0.01
freq.    1180.75  E(vib)   ...       0.01
freq.    1194.32  E(vib)   ...       0.01
freq.    1207.61  E(vib)   ...       0.01
freq.    1210.58  E(vib)   ...       0.01
freq.    1214.27  E(vib)   ...       0.01
freq.    1224.60  E(vib)   ...       0.01
freq.    1237.76  E(vib)   ...       0.01
freq.    1241.22  E(vib)   ...       0.01
freq.    1246.86  E(vib)   ...       0.01
freq.    1263.82  E(vib)   ...       0.01
freq.    1269.75  E(vib)   ...       0.01
freq.    1290.03  E(vib)   ...       0.01
freq.    1298.84  E(vib)   ...       0.01
freq.    1301.40  E(vib)   ...       0.01
freq.    1304.74  E(vib)   ...       0.01
freq.    1310.60  E(vib)   ...       0.01
freq.    1319.54  E(vib)   ...       0.01
freq.    1324.48  E(vib)   ...       0.01
freq.    1342.14  E(vib)   ...       0.01
freq.    1347.85  E(vib)   ...       0.01
freq.    1355.69  E(vib)   ...       0.01
freq.    1360.68  E(vib)   ...       0.01
freq.    1435.03  E(vib)   ...       0.00
freq.    1442.66  E(vib)   ...       0.00
freq.    1751.58  E(vib)   ...       0.00
freq.    2864.80  E(vib)   ...       0.00
freq.    2901.75  E(vib)   ...       0.00
freq.    2915.94  E(vib)   ...       0.00
freq.    2953.28  E(vib)   ...       0.00
freq.    2963.75  E(vib)   ...       0.00
freq.    2965.80  E(vib)   ...       0.00
freq.    2966.56  E(vib)   ...       0.00
freq.    2975.56  E(vib)   ...       0.00
freq.    2983.13  E(vib)   ...       0.00
freq.    3027.79  E(vib)   ...       0.00
freq.    3307.09  E(vib)   ...       0.00
freq.    3461.36  E(vib)   ...       0.00
freq.    3484.90  E(vib)   ...       0.00
freq.    3531.69  E(vib)   ...       0.00
freq.    3552.58  E(vib)   ...       0.00
freq.    3554.92  E(vib)   ...       0.00
freq.    3627.11  E(vib)   ...       0.00
freq.    3638.84  E(vib)   ...       0.00

------------
INNER ENERGY
------------

The inner energy is: U= E(el) + E(ZPE) + E(vib) + E(rot) + E(trans)
    E(el)   - is the total energy from the electronic structure calculation
              = E(kin-el) + E(nuc-el) + E(el-el) + E(nuc-nuc)
    E(ZPE)  - the the zero temperature vibrational energy from the frequency calculation
    E(vib)  - the the finite temperature correction to E(ZPE) due to population
              of excited vibrational states
    E(rot)  - is the rotational thermal energy
    E(trans)- is the translational thermal energy

Summary of contributions to the inner energy U:
Electronic energy                ...    -94.81651230 Eh
Zero point energy                ...      0.30794518 Eh     193.24 kcal/mol
Thermal vibrational correction   ...      0.02622224 Eh      16.45 kcal/mol

Rotational constants in cm-1:     0.007635     0.005803     0.004576

                             ****ORCA TERMINATED NORMALLY****
TOTAL RUN TIME: 0 days 0 hours 11 minutes 24 seconds 854 msec
