                         Program Version 5.0.3 -  RELEASE  -
|  1> ! XTB2 opt numfreq
|  2> * XYZ 0 1
|  3> C -2.6596 -1.0987 2.1686
|  4> C -1.9195 -0.3010 1.0842
|  5> O -0.6882 0.1588 1.6759
|  6> C -2.7739 0.9438 0.8021
|  7> O -2.5166 2.0701 1.2071
|  8> O -3.9118 0.7064 0.1189
|  9> C -1.6334 -1.1258 -0.2126
| 10> O -2.8780 -1.6472 -0.7419
| 11> C -0.7461 -2.3256 0.1838
| 12> O -1.1969 -3.4095 0.5465
| 13> O 0.5962 -2.1108 0.2212
| 14> C 1.2240 -1.3620 -0.8373
| 15> C 2.7083 -1.1852 -0.4957
| 16> O 2.8783 -0.1908 0.5040
| 17> P 3.9044 0.9944 0.2001
| 18> O 5.3276 0.6321 -0.0202
| 19> O 3.2230 1.7706 -1.0258
| 20> O 3.6471 2.0114 1.3983
| 21> C 0.5066 -0.0418 -1.0952
| 22> O 1.0379 0.6293 -2.2464
| 23> C -0.9580 -0.3679 -1.3696
| 24> O -1.6572 0.8431 -1.7016
| 25> H -3.5889 -1.5405 1.7950
| 26> H -2.9192 -0.4513 3.0155
| 27> H -2.0304 -1.8935 2.5824
| 28> H -0.9124 0.9289 2.2382
| 29> H -4.3076 1.5986 0.0078
| 30> H -3.4501 -0.8728 -0.9242
| 31> H 1.1860 -1.9939 -1.7350
| 32> H 3.2687 -0.9173 -1.3986
| 33> H 3.1250 -2.1188 -0.1037
| 34> H 3.7731 2.5455 -1.2565
| 35> H 4.0375 1.6861 2.2305
| 36> H 0.5829 0.6590 -0.2601
| 37> H 1.8190 1.1382 -1.9292
| 38> H -1.0226 -0.9785 -2.2812
| 39> H -1.0752 1.2998 -2.3454
| 40> *
| 41>
| 42>                          ****END OF INPUT****
FINAL SINGLE POINT ENERGY       -78.390031211710
FINAL SINGLE POINT ENERGY       -78.403002708900
FINAL SINGLE POINT ENERGY       -78.407235567460
FINAL SINGLE POINT ENERGY       -78.409585342790
FINAL SINGLE POINT ENERGY       -78.411020464800
FINAL SINGLE POINT ENERGY       -78.411889511390
FINAL SINGLE POINT ENERGY       -78.412751924880
FINAL SINGLE POINT ENERGY       -78.413281759680
FINAL SINGLE POINT ENERGY       -78.413603428550
FINAL SINGLE POINT ENERGY       -78.413745520790
FINAL SINGLE POINT ENERGY       -78.427980312930
FINAL SINGLE POINT ENERGY       -78.428046749270
FINAL SINGLE POINT ENERGY       -78.428071326100
FINAL SINGLE POINT ENERGY       -78.428076127710
FINAL SINGLE POINT ENERGY       -78.428095103990
FINAL SINGLE POINT ENERGY       -78.428099550400
FINAL SINGLE POINT ENERGY       -78.428103902310
FINAL SINGLE POINT ENERGY       -78.428106459520
FINAL SINGLE POINT ENERGY       -78.428108000040
                    ***********************HURRAY********************

CARTESIAN COORDINATES (ANGSTROEM)
---------------------------------
  C    -2.619404   -0.593522    2.098398
  C    -1.776567   -0.034134    0.942466
  O    -0.572070    0.507263    1.429070
  C    -2.578937    1.111249    0.322219
  O    -2.233067    2.257895    0.459256
  O    -3.742272    0.743028   -0.208290
  C    -1.464537   -1.141709   -0.123257
  O    -2.618822   -1.865828   -0.446597
  C    -0.505538   -2.150900    0.541586
  O    -0.865970   -2.863499    1.431800
  O     0.762504   -2.245015    0.131989
  C     1.348896   -1.519316   -0.936739
  C     2.827271   -1.319226   -0.582513
  O     2.997295   -0.505304    0.556114
  P     3.146329    1.085505    0.385434
  O     3.188168    1.534725   -1.009472
  O     2.009019    1.709780    1.270194
  O     4.453295    1.420804    1.228003
  C     0.621652   -0.201241   -1.212386
  O     1.074978    0.422958   -2.383802
  C    -0.860489   -0.527925   -1.401352
  O    -1.576862    0.625759   -1.764476
  H    -3.534542   -1.036768    1.719658
  H    -2.856669    0.213481    2.788221
  H    -2.047788   -1.355630    2.618830
  H    -0.668635    1.477892    1.378064
  H    -4.200582    1.518406   -0.569531
  H    -3.296334   -1.236830   -0.735506
  H     1.304648   -2.139851   -1.844834
  H     3.336638   -0.880161   -1.445150
  H     3.265408   -2.287704   -0.332131
  H     1.802220    1.201113    2.056066
  H     5.230037    1.472988    0.673610
  H     0.727145    0.463891   -0.348958
  H     1.863773    0.949454   -2.154233
  H    -0.956691   -1.276973   -2.206133
  H    -0.983500    1.148548   -2.325720

FINAL SINGLE POINT ENERGY       -78.428108976190

VIBRATIONAL FREQUENCIES
-----------------------

Scaling factor for frequencies =  1.000000000 (already applied!)

   0:         0.00 cm**-1
   1:         0.00 cm**-1
   2:         0.00 cm**-1
   3:         0.00 cm**-1
   4:         0.00 cm**-1
   5:         0.00 cm**-1
   6:        36.20 cm**-1
   7:        49.30 cm**-1
   8:        65.16 cm**-1
   9:        69.54 cm**-1
  10:        84.98 cm**-1
  11:        96.13 cm**-1
  12:       133.18 cm**-1
  13:       145.30 cm**-1
  14:       151.94 cm**-1
  15:       162.63 cm**-1
  16:       170.95 cm**-1
  17:       180.17 cm**-1
  18:       182.29 cm**-1
  19:       194.62 cm**-1
  20:       203.32 cm**-1
  21:       247.68 cm**-1
  22:       254.74 cm**-1
  23:       264.11 cm**-1
  24:       275.13 cm**-1
  25:       279.54 cm**-1
  26:       292.13 cm**-1
  27:       312.81 cm**-1
  28:       318.05 cm**-1
  29:       345.03 cm**-1
  30:       355.24 cm**-1
  31:       361.32 cm**-1
  32:       376.95 cm**-1
  33:       391.63 cm**-1
  34:       407.02 cm**-1
  35:       414.22 cm**-1
  36:       418.76 cm**-1
  37:       425.81 cm**-1
  38:       447.70 cm**-1
  39:       453.08 cm**-1
  40:       478.58 cm**-1
  41:       493.79 cm**-1
  42:       524.33 cm**-1
  43:       544.24 cm**-1
  44:       555.90 cm**-1
  45:       584.15 cm**-1
  46:       620.63 cm**-1
  47:       649.94 cm**-1
  48:       664.74 cm**-1
  49:       672.15 cm**-1
  50:       691.97 cm**-1
  51:       713.36 cm**-1
  52:       734.05 cm**-1
  53:       752.03 cm**-1
  54:       824.30 cm**-1
  55:       845.33 cm**-1
  56:       861.97 cm**-1
  57:       899.76 cm**-1
  58:       916.87 cm**-1
  59:       922.15 cm**-1
  60:       943.00 cm**-1
  61:       966.03 cm**-1
  62:       970.67 cm**-1
  63:      1039.18 cm**-1
  64:      1052.76 cm**-1
  65:      1075.15 cm**-1
  66:      1097.70 cm**-1
  67:      1106.56 cm**-1
  68:      1110.07 cm**-1
  69:      1122.69 cm**-1
  70:      1127.80 cm**-1
  71:      1132.44 cm**-1
  72:      1141.71 cm**-1
  73:      1153.12 cm**-1
  74:      1175.59 cm**-1
  75:      1181.71 cm**-1
  76:      1208.24 cm**-1
  77:      1221.83 cm**-1
  78:      1238.34 cm**-1
  79:      1246.16 cm**-1
  80:      1249.48 cm**-1
  81:      1263.69 cm**-1
  82:      1274.87 cm**-1
  83:      1290.00 cm**-1
  84:      1315.43 cm**-1
  85:      1317.95 cm**-1
  86:      1323.28 cm**-1
  87:      1329.41 cm**-1
  88:      1331.97 cm**-1
  89:      1351.77 cm**-1
  90:      1391.88 cm**-1
  91:      1421.16 cm**-1
  92:      1457.71 cm**-1
  93:      1468.77 cm**-1
  94:      1768.33 cm**-1
  95:      1774.15 cm**-1
  96:      2850.66 cm**-1
  97:      2875.39 cm**-1
  98:      2946.45 cm**-1
  99:      2964.59 cm**-1
 100:      2977.19 cm**-1
 101:      3032.05 cm**-1
 102:      3066.81 cm**-1
 103:      3068.33 cm**-1
 104:      3302.14 cm**-1
 105:      3306.81 cm**-1
 106:      3437.60 cm**-1
 107:      3438.35 cm**-1
 108:      3463.07 cm**-1
 109:      3575.05 cm**-1
 110:      3629.38 cm**-1

IR SPECTRUM
-----------

 Mode   freq       eps      Int      T**2         TX        TY        TZ
       cm**-1   L/(mol*cm) km/mol    a.u.
----------------------------------------------------------------------------
  6:     36.20   0.000499    2.52  0.004301  (-0.010492 -0.057745 -0.029261)
  7:     49.30   0.000340    1.72  0.002153  (-0.021151 -0.003807 -0.041121)
  8:     65.16   0.000075    0.38  0.000357  (-0.015700  0.000029  0.010510)
  9:     69.54   0.000122    0.62  0.000548  ( 0.020225  0.010760 -0.004780)
 10:     84.98   0.000123    0.62  0.000450  ( 0.010251  0.015076  0.010840)
 11:     96.13   0.000442    2.23  0.001434  (-0.008216  0.013161  0.034551)
 12:    133.18   0.001095    5.53  0.002565  ( 0.037486  0.029077  0.017741)
 13:    145.30   0.000166    0.84  0.000357  ( 0.017937 -0.003038  0.005116)
 14:    151.94   0.001483    7.50  0.003047  ( 0.033105 -0.034306  0.027823)
 15:    162.63   0.000461    2.33  0.000885  (-0.012120 -0.008108 -0.025922)
 16:    170.95   0.000397    2.01  0.000726  (-0.004038  0.005841  0.025984)
 17:    180.17   0.008397   42.44  0.014545  ( 0.092904 -0.044925  0.062412)
 18:    182.29   0.010116   51.12  0.017317  (-0.077175  0.023323 -0.104007)
 19:    194.62   0.003473   17.55  0.005569  (-0.036083  0.037082 -0.053774)
 20:    203.32   0.000184    0.93  0.000282  (-0.003791 -0.011820  0.011329)
 21:    247.68   0.021978  111.07  0.027690  ( 0.073771  0.131471  0.070453)
 22:    254.74   0.008135   41.11  0.009966  (-0.022725 -0.095818 -0.016374)
 23:    264.11   0.003784   19.12  0.004471  ( 0.030247  0.038010  0.045952)
 24:    275.13   0.000795    4.02  0.000901  (-0.024747 -0.016219 -0.005070)
 25:    279.54   0.004907   24.80  0.005478  (-0.011318 -0.073069 -0.003225)
 26:    292.13   0.002981   15.06  0.003184  ( 0.024356 -0.040151 -0.031282)
 27:    312.81   0.002617   13.23  0.002611  ( 0.003778 -0.001943  0.050920)
 28:    318.05   0.004609   23.29  0.004522  (-0.061587  0.026011 -0.007258)
 29:    345.03   0.000934    4.72  0.000844  (-0.022031 -0.011458 -0.015089)
 30:    355.24   0.005335   26.96  0.004687  ( 0.056863  0.026763  0.027151)
 31:    361.32   0.001265    6.39  0.001093  (-0.031561 -0.002862 -0.009409)
 32:    376.95   0.001760    8.90  0.001457  (-0.002840  0.033047 -0.018895)
 33:    391.63   0.005521   27.90  0.004399  (-0.025814 -0.060847 -0.005504)
 34:    407.02   0.009567   48.35  0.007335  (-0.064124 -0.025224 -0.050863)
 35:    414.22   0.003725   18.82  0.002806  ( 0.023007  0.020626 -0.043030)
 36:    418.76   0.018919   95.61  0.014099  (-0.116436 -0.022740 -0.004908)
 37:    425.81   0.004063   20.53  0.002978  ( 0.024488  0.047231 -0.012148)
 38:    447.70   0.011243   56.82  0.007837  ( 0.015992  0.059697  0.063383)
 39:    453.08   0.027188  137.40  0.018726  ( 0.010067 -0.033041 -0.132412)
 40:    478.58   0.016990   85.86  0.011078  (-0.072469 -0.060843 -0.046094)
 41:    493.79   0.006921   34.98  0.004374  ( 0.056029 -0.004700 -0.034824)
 42:    524.33   0.002079   10.51  0.001237  (-0.012003  0.013565  0.030156)
 43:    544.24   0.003634   18.37  0.002084  ( 0.030805 -0.030811  0.013624)
 44:    555.90   0.000590    2.98  0.000331  ( 0.012814  0.007862  0.010256)
 45:    584.15   0.020143  101.79  0.010761  (-0.021678  0.010138  0.100935)
 46:    620.63   0.005111   25.83  0.002570  (-0.031760  0.030683 -0.024897)
 47:    649.94   0.029260  147.87  0.014049  (-0.081348  0.072707  0.046317)
 48:    664.74   0.003465   17.51  0.001627  ( 0.014212 -0.031431 -0.020900)
 49:    672.15   0.014162   71.57  0.006575  (-0.068324  0.000572  0.043664)
 50:    691.97   0.008531   43.11  0.003847  (-0.061181 -0.003669  0.009514)
 51:    713.36   0.024766  125.16  0.010834  ( 0.013939 -0.072785 -0.073088)
 52:    734.05   0.027290  137.91  0.011602  (-0.031708 -0.081518  0.062859)
 53:    752.03   0.002984   15.08  0.001238  (-0.008359 -0.008621 -0.033077)
 54:    824.30   0.035717  180.50  0.013522  (-0.078389 -0.077249 -0.037541)
 55:    845.33   0.001878    9.49  0.000693  ( 0.010533 -0.017377 -0.016748)
 56:    861.97   0.043224  218.43  0.015648  (-0.106236 -0.050884 -0.042109)
 57:    899.76   0.031404  158.70  0.010892  ( 0.081300  0.001709  0.065415)
 58:    916.87   0.077165  389.96  0.026264  ( 0.084498 -0.116178 -0.075011)
 59:    922.15   0.025366  128.19  0.008584  ( 0.085892 -0.034347  0.005205)
 60:    943.00   0.004290   21.68  0.001420  (-0.027498 -0.021093 -0.014783)
 61:    966.03   0.002158   10.91  0.000697  (-0.010197  0.009993 -0.022211)
 62:    970.67   0.003504   17.71  0.001126  ( 0.021384  0.025867 -0.000158)
 63:   1039.18   0.002081   10.51  0.000625  ( 0.015257  0.015193  0.012696)
 64:   1052.76   0.001208    6.10  0.000358  ( 0.016690  0.001168  0.008837)
 65:   1075.15   0.020015  101.15  0.005809  (-0.018164  0.074020 -0.000749)
 66:   1097.70   0.005565   28.12  0.001582  (-0.007754 -0.013716 -0.036522)
 67:   1106.56   0.025929  131.03  0.007312  (-0.054414 -0.054100 -0.037745)
 68:   1110.07   0.021269  107.48  0.005979  (-0.053013 -0.023210  0.051284)
 69:   1122.69   0.011441   57.82  0.003180  ( 0.000961  0.045436 -0.033387)
 70:   1127.80   0.065474  330.88  0.018117  ( 0.118280  0.056925  0.029769)
 71:   1132.44   0.005985   30.25  0.001649  (-0.028682  0.012208  0.026032)
 72:   1141.71   0.010574   53.44  0.002890  ( 0.010762  0.047516  0.022729)
 73:   1153.12   0.017286   87.35  0.004678  (-0.028136  0.019882 -0.059085)
 74:   1175.59   0.016414   82.95  0.004357  ( 0.046293 -0.014781 -0.044674)
 75:   1181.71   0.034798  175.85  0.009189  ( 0.078669 -0.047761 -0.026824)
 76:   1208.24   0.012426   62.80  0.003209  ( 0.039760  0.002849 -0.040254)
 77:   1221.83   0.013884   70.16  0.003546  (-0.056773  0.015776 -0.008597)
 78:   1238.34   0.043091  217.77  0.010859  (-0.073657  0.022769 -0.070110)
 79:   1246.16   0.031889  161.16  0.007986  ( 0.079024 -0.041196 -0.006616)
 80:   1249.48   0.064157  324.22  0.016024  (-0.017343  0.036298 -0.120022)
 81:   1263.69   0.013320   67.32  0.003289  (-0.012709  0.014331 -0.054061)
 82:   1274.87   0.017047   86.15  0.004173  ( 0.008895 -0.058976 -0.024806)
 83:   1290.00   0.017730   89.60  0.004289  ( 0.051802  0.017433 -0.036081)
 84:   1315.43   0.007834   39.59  0.001858  (-0.024016  0.020194 -0.029563)
 85:   1317.95   0.005639   28.50  0.001335  (-0.002305  0.012346 -0.034315)
 86:   1323.28   0.010505   53.09  0.002477  ( 0.046065 -0.008291  0.016930)
 87:   1329.41   0.010113   51.11  0.002374  (-0.035942 -0.019569 -0.026441)
 88:   1331.97   0.012486   63.10  0.002925  ( 0.040815  0.030251  0.018556)
 89:   1351.77   0.009573   48.38  0.002210  ( 0.017352 -0.028327 -0.033262)
 90:   1391.88   0.001178    5.96  0.000264  ( 0.004313  0.004915 -0.014881)
 91:   1421.16   0.002004   10.13  0.000440  ( 0.002828  0.013316  0.015959)
 92:   1457.71   0.001656    8.37  0.000355  ( 0.009027  0.016508  0.000724)
 93:   1468.77   0.005124   25.89  0.001089  ( 0.004085  0.025301  0.020781)
 94:   1768.33   0.082385  416.34  0.014539  (-0.041195 -0.110579 -0.024779)
 95:   1774.15   0.093521  472.62  0.016450  ( 0.052876  0.082896 -0.082354)
 96:   2850.66   0.007399   37.39  0.000810  ( 0.001235  0.020288  0.019922)
 97:   2875.39   0.009226   46.63  0.001001  (-0.000110  0.021807  0.022929)
 98:   2946.45   0.006678   33.75  0.000707  ( 0.001102 -0.000384 -0.026568)
 99:   2964.59   0.003620   18.29  0.000381  (-0.001176 -0.012421 -0.015011)
100:   2977.19   0.004352   21.99  0.000456  (-0.000304 -0.021253  0.002088)
101:   3032.05   0.009757   49.31  0.001004  (-0.000771 -0.022083 -0.022714)
102:   3066.81   0.001304    6.59  0.000133  ( 0.000006  0.008907  0.007303)
103:   3068.33   0.000773    3.90  0.000079  ( 0.007300 -0.004785 -0.001550)
104:   3302.14   0.034756  175.64  0.003285  ( 0.038174 -0.038454  0.018670)
105:   3306.81   0.102480  517.89  0.009671  (-0.079337 -0.050405 -0.028914)
106:   3437.60   0.023933  120.95  0.002173  ( 0.041662 -0.019077 -0.008545)
107:   3438.35   0.008072   40.79  0.000733  (-0.014786 -0.015112  0.016901)
108:   3463.07   0.008420   42.55  0.000759  ( 0.025648 -0.008659 -0.005095)
109:   3575.05   0.012247   61.89  0.001069  ( 0.015399  0.011288 -0.026543)
110:   3629.38   0.018709   94.55  0.001609  (-0.035390 -0.013758  0.012921)

--------------------------
THERMOCHEMISTRY AT 298.15K
--------------------------

Temperature         ... 298.15 K
Pressure            ... 1.00 atm
Total Mass          ... 346.18 AMU

Throughout the following assumptions are being made:
  (1) The electronic state is orbitally nondegenerate
  (2) There are no thermally accessible electronically excited states
  (3) Hindered rotations indicated by low frequency modes are not
      treated as such but are treated as vibrations and this may
      cause some error
  (4) All equations used are the standard statistical mechanics
      equations for an ideal gas
  (5) All vibrations are strictly harmonic

freq.      36.20  E(vib)   ...       0.54
freq.      49.30  E(vib)   ...       0.52
freq.      65.16  E(vib)   ...       0.50
freq.      69.54  E(vib)   ...       0.50
freq.      84.98  E(vib)   ...       0.48
freq.      96.13  E(vib)   ...       0.47
freq.     133.18  E(vib)   ...       0.42
freq.     145.30  E(vib)   ...       0.41
freq.     151.94  E(vib)   ...       0.40
freq.     162.63  E(vib)   ...       0.39
freq.     170.95  E(vib)   ...       0.38
freq.     180.17  E(vib)   ...       0.37
freq.     182.29  E(vib)   ...       0.37
freq.     194.62  E(vib)   ...       0.36
freq.     203.32  E(vib)   ...       0.35
freq.     247.68  E(vib)   ...       0.31
freq.     254.74  E(vib)   ...       0.30
freq.     264.11  E(vib)   ...       0.29
freq.     275.13  E(vib)   ...       0.28
freq.     279.54  E(vib)   ...       0.28
freq.     292.13  E(vib)   ...       0.27
freq.     312.81  E(vib)   ...       0.25
freq.     318.05  E(vib)   ...       0.25
freq.     345.03  E(vib)   ...       0.23
freq.     355.24  E(vib)   ...       0.22
freq.     361.32  E(vib)   ...       0.22
freq.     376.95  E(vib)   ...       0.21
freq.     391.63  E(vib)   ...       0.20
freq.     407.02  E(vib)   ...       0.19
freq.     414.22  E(vib)   ...       0.19
freq.     418.76  E(vib)   ...       0.18
freq.     425.81  E(vib)   ...       0.18
freq.     447.70  E(vib)   ...       0.17
freq.     453.08  E(vib)   ...       0.16
freq.     478.58  E(vib)   ...       0.15
freq.     493.79  E(vib)   ...       0.14
freq.     524.33  E(vib)   ...       0.13
freq.     544.24  E(vib)   ...       0.12
freq.     555.90  E(vib)   ...       0.12
freq.     584.15  E(vib)   ...       0.11
freq.     620.63  E(vib)   ...       0.09
freq.     649.94  E(vib)   ...       0.08
freq.     664.74  E(vib)   ...       0.08
freq.     672.15  E(vib)   ...       0.08
freq.     691.97  E(vib)   ...       0.07
freq.     713.36  E(vib)   ...       0.07
freq.     734.05  E(vib)   ...       0.06
freq.     752.03  E(vib)   ...       0.06
freq.     824.30  E(vib)   ...       0.04
freq.     845.33  E(vib)   ...       0.04
freq.     861.97  E(vib)   ...       0.04
freq.     899.76  E(vib)   ...       0.03
freq.     916.87  E(vib)   ...       0.03
freq.     922.15  E(vib)   ...       0.03
freq.     943.00  E(vib)   ...       0.03
freq.     966.03  E(vib)   ...       0.03
freq.     970.67  E(vib)   ...       0.03
freq.    1039.18  E(vib)   ...       0.02
freq.    1052.76  E(vib)   ...       0.02
freq.    1075.15  E(vib)   ...       0.02
freq.    1097.70  E(vib)   ...       0.02
freq.    1106.56  E(vib)   ...       0.02
freq.    1110.07  E(vib)   ...       0.02
freq.    1122.69  E(vib)   ...       0.01
freq.    1127.80  E(vib)   ...       0.01
freq.    1132.44  E(vib)   ...       0.01
freq.    1141.71  E(vib)   ...       0.01
freq.    1153.12  E(vib)   ...       0.01
freq.    1175.59  E(vib)   ...       0.01
freq.    1181.71  E(vib)   ...       0.01
freq.    1208.24  E(vib)   ...       0.01
freq.    1221.83  E(vib)   ...       0.01
freq.    1238.34  E(vib)   ...       0.01
freq.    1246.16  E(vib)   ...       0.01
freq.    1249.48  E(vib)   ...       0.01
freq.    1263.69  E(vib)   ...       0.01
freq.    1274.87  E(vib)   ...       0.01
freq.    1290.00  E(vib)   ...       0.01
freq.    1315.43  E(vib)   ...       0.01
freq.    1317.95  E(vib)   ...       0.01
freq.    1323.28  E(vib)   ...       0.01
freq.    1329.41  E(vib)   ...       0.01
freq.    1331.97  E(vib)   ...       0.01
freq.    1351.77  E(vib)   ...       0.01
freq.    1391.88  E(vib)   ...       0.00
freq.    1421.16  E(vib)   ...       0.00
freq.    1457.71  E(vib)   ...       0.00
freq.    1468.77  E(vib)   ...       0.00
freq.    1768.33  E(vib)   ...       0.00
freq.    1774.15  E(vib)   ...       0.00
freq.    2850.66  E(vib)   ...       0.00
freq.    2875.39  E(vib)   ...       0.00
freq.    2946.45  E(vib)   ...       0.00
freq.    2964.59  E(vib)   ...       0.00
freq.    2977.19  E(vib)   ...       0.00
freq.    3032.05  E(vib)   ...       0.00
freq.    3066.81  E(vib)   ...       0.00
freq.    3068.33  E(vib)   ...       0.00
freq.    3302.14  E(vib)   ...       0.00
freq.    3306.81  E(vib)   ...       0.00
freq.    3437.60  E(vib)   ...       0.00
freq.    3438.35  E(vib)   ...       0.00
freq.    3463.07  E(vib)   ...       0.00
freq.    3575.05  E(vib)   ...       0.00
freq.    3629.38  E(vib)   ...       0.00

------------
INNER ENERGY
------------

The inner energy is: U= E(el) + E(ZPE) + E(vib) + E(rot) + E(trans)
    E(el)   - is the total energy from the electronic structure calculation
              = E(kin-el) + E(nuc-el) + E(el-el) + E(nuc-nuc)
    E(ZPE)  - the the zero temperature vibrational energy from the frequency calculation
    E(vib)  - the the finite temperature correction to E(ZPE) due to population
              of excited vibrational states
    E(rot)  - is the rotational thermal energy
    E(trans)- is the translational thermal energy

Summary of contributions to the inner energy U:
Electronic energy                ...    -78.42810898 Eh
Zero point energy                ...      0.26219744 Eh     164.53 kcal/mol
Thermal vibrational correction   ...      0.02046340 Eh      12.84 kcal/mol
Thermal rotational correction    ...      0.00141627 Eh       0.89 kcal/mol
Thermal translational correction ...      0.00141627 Eh       0.89 kcal/mol
-----------------------------------------------------------------------
Total thermal energy                    -78.14261560 Eh

Summary of corrections to the electronic energy:
(perhaps to be used in another calculation)
Total thermal correction                  0.02329594 Eh      14.62 kcal/mol
Non-thermal (ZPE) correction              0.26219744 Eh     164.53 kcal/mol
-----------------------------------------------------------------------
Total correction                          0.28549338 Eh     179.15 kcal/mol

--------
ENTHALPY
--------

The enthalpy is H = U + kB*T
                kB is Boltzmann's constant
Total free energy                 ...    -78.14261560 Eh

Rotational constants in cm-1:     0.015092     0.006888     0.006368

                             ****ORCA TERMINATED NORMALLY****
TOTAL RUN TIME: 0 days 0 hours 9 minutes 26 seconds 625 msec
