                         Program Version 5.0.3 -  RELEASE  -
|  1> ! XTB2 opt numfreq
|  2> * XYZ 0 1
|  3> C -4.6132 0.6868 -0.0564
|  4> C -3.4292 0.2256 -0.8678
|  5> O -3.4643 -0.8405 -1.4962
|  6> C -2.1582 1.1147 -0.8899
|  7> O -2.5573 2.4752 -0.8396
|  8> O -1.4965 0.9393 -2.1371
|  9> C -1.2262 0.6533 0.2810
| 10> O -1.8589 0.9934 1.5489
| 11> C 0.0335 1.5282 0.2298
| 12> O -0.0544 2.7484 0.0665
| 13> O 1.2433 0.9930 0.4960
| 14> C 1.5033 -0.4245 0.6262
| 15> C 2.0582 -0.9431 -0.7100
| 16> O 3.3437 -0.3960 -1.0060
| 17> P 4.5676 -0.7871 -0.0588
| 18> O 4.5264 -2.1511 0.5379
| 19> O 5.8640 -0.5172 -0.9448
| 20> O 4.6476 0.4118 0.9878
| 21> C 0.2800 -1.1727 1.1523
| 22> O -0.0032 -0.7372 2.4946
| 23> C -0.9419 -0.8712 0.2890
| 24> O -0.7628 -1.4877 -0.9811
| 25> H -4.3335 0.8252 0.9888
| 26> H -5.0075 1.6177 -0.4710
| 27> H -5.4003 -0.0718 -0.1035
| 28> H -1.8352 2.9678 -0.3958
| 29> H -2.1903 1.0183 -2.8160
| 30> H -1.2840 0.6254 2.2577
| 31> H 2.2788 -0.4897 1.3954
| 32> H 1.4211 -0.6350 -1.5432
| 33> H 2.1330 -2.0353 -0.7150
| 34> H 6.1356 -1.3255 -1.4177
| 35> H 4.8064 1.2586 0.5317
| 36> H 0.4766 -2.2507 1.1806
| 37> H 0.7257 -1.0580 3.0624
| 38> H -1.7957 -1.3745 0.7634
| 39> H -1.6322 -1.5139 -1.4399
| 40> *
| 41>
| 42>                          ****END OF INPUT****
FINAL SINGLE POINT ENERGY       -78.382796882780
FINAL SINGLE POINT ENERGY       -78.396676146170
FINAL SINGLE POINT ENERGY       -78.399601706900
FINAL SINGLE POINT ENERGY       -78.401685915260
FINAL SINGLE POINT ENERGY       -78.402259968670
FINAL SINGLE POINT ENERGY       -78.402575025750
FINAL SINGLE POINT ENERGY       -78.402698866060
FINAL SINGLE POINT ENERGY       -78.402850479990
FINAL SINGLE POINT ENERGY       -78.403004036000
FINAL SINGLE POINT ENERGY       -78.403076043460
FINAL SINGLE POINT ENERGY       -78.403137274770
FINAL SINGLE POINT ENERGY       -78.403155381910
FINAL SINGLE POINT ENERGY       -78.403164737700
FINAL SINGLE POINT ENERGY       -78.403171412380
FINAL SINGLE POINT ENERGY       -78.403174297890
                    ***********************HURRAY********************

CARTESIAN COORDINATES (ANGSTROEM)
---------------------------------
  C    -4.465445    0.860075   -0.089654
  C    -3.350968    0.279391   -0.877124
  O    -3.395783   -0.763398   -1.489269
  C    -2.040189    1.099049   -0.855391
  O    -2.360570    2.432525   -0.718186
  O    -1.275337    0.866267   -2.012410
  C    -1.159872    0.566448    0.328509
  O    -1.804317    0.956648    1.520310
  C     0.172742    1.338099    0.252349
  O     0.179786    2.533781    0.086342
  O     1.325473    0.728829    0.472800
  C     1.476819   -0.675212    0.641069
  C     2.008076   -1.268815   -0.666872
  O     3.153543   -0.570504   -1.096019
  P     4.384150   -0.453126   -0.055821
  O     4.528470   -1.602859    0.832817
  O     5.588439   -0.161827   -1.053946
  O     4.219924    0.927707    0.687690
  C     0.212539   -1.353096    1.171963
  O    -0.055044   -0.951235    2.498029
  C    -1.004897   -0.977441    0.313569
  O    -0.831328   -1.568015   -0.933481
  H    -4.108793    1.029017    0.925589
  H    -4.709383    1.838498   -0.498922
  H    -5.331039    0.204413   -0.104741
  H    -1.555345    2.914719   -0.445543
  H    -1.726873    1.259784   -2.769332
  H    -1.337451    0.541377    2.263256
  H     2.279007   -0.767759    1.386346
  H     1.267120   -1.175975   -1.463114
  H     2.251376   -2.321142   -0.494447
  H     5.968938   -0.976790   -1.377242
  H     4.002112    1.652814    0.100711
  H     0.349741   -2.440590    1.108709
  H     0.683646   -1.204883    3.064613
  H    -1.904412   -1.375527    0.816138
  H    -1.634854   -1.421244   -1.469097

FINAL SINGLE POINT ENERGY       -78.403175679630

VIBRATIONAL FREQUENCIES
-----------------------

Scaling factor for frequencies =  1.000000000 (already applied!)

   0:         0.00 cm**-1
   1:         0.00 cm**-1
   2:         0.00 cm**-1
   3:         0.00 cm**-1
   4:         0.00 cm**-1
   5:         0.00 cm**-1
   6:        27.08 cm**-1
   7:        28.87 cm**-1
   8:        43.12 cm**-1
   9:        66.48 cm**-1
  10:        69.63 cm**-1
  11:        77.23 cm**-1
  12:       105.08 cm**-1
  13:       127.17 cm**-1
  14:       152.79 cm**-1
  15:       157.89 cm**-1
  16:       173.98 cm**-1
  17:       186.07 cm**-1
  18:       191.57 cm**-1
  19:       200.65 cm**-1
  20:       206.83 cm**-1
  21:       237.71 cm**-1
  22:       240.48 cm**-1
  23:       242.94 cm**-1
  24:       262.79 cm**-1
  25:       286.42 cm**-1
  26:       290.39 cm**-1
  27:       297.98 cm**-1
  28:       319.58 cm**-1
  29:       327.94 cm**-1
  30:       334.88 cm**-1
  31:       354.23 cm**-1
  32:       367.59 cm**-1
  33:       375.81 cm**-1
  34:       381.25 cm**-1
  35:       406.02 cm**-1
  36:       420.79 cm**-1
  37:       448.29 cm**-1
  38:       460.69 cm**-1
  39:       469.51 cm**-1
  40:       489.17 cm**-1
  41:       507.23 cm**-1
  42:       526.57 cm**-1
  43:       541.64 cm**-1
  44:       545.73 cm**-1
  45:       564.75 cm**-1
  46:       569.95 cm**-1
  47:       594.01 cm**-1
  48:       614.02 cm**-1
  49:       624.70 cm**-1
  50:       679.76 cm**-1
  51:       717.00 cm**-1
  52:       733.56 cm**-1
  53:       780.67 cm**-1
  54:       816.89 cm**-1
  55:       845.15 cm**-1
  56:       848.39 cm**-1
  57:       903.65 cm**-1
  58:       909.97 cm**-1
  59:       912.27 cm**-1
  60:       952.07 cm**-1
  61:       982.14 cm**-1
  62:       990.43 cm**-1
  63:       993.08 cm**-1
  64:      1016.12 cm**-1
  65:      1057.15 cm**-1
  66:      1069.80 cm**-1
  67:      1098.87 cm**-1
  68:      1099.78 cm**-1
  69:      1110.46 cm**-1
  70:      1112.70 cm**-1
  71:      1118.56 cm**-1
  72:      1131.07 cm**-1
  73:      1143.56 cm**-1
  74:      1178.02 cm**-1
  75:      1195.65 cm**-1
  76:      1200.69 cm**-1
  77:      1206.87 cm**-1
  78:      1236.62 cm**-1
  79:      1251.13 cm**-1
  80:      1260.01 cm**-1
  81:      1279.87 cm**-1
  82:      1287.66 cm**-1
  83:      1303.20 cm**-1
  84:      1306.61 cm**-1
  85:      1315.74 cm**-1
  86:      1320.21 cm**-1
  87:      1331.42 cm**-1
  88:      1342.78 cm**-1
  89:      1353.86 cm**-1
  90:      1363.15 cm**-1
  91:      1408.73 cm**-1
  92:      1424.31 cm**-1
  93:      1432.28 cm**-1
  94:      1729.44 cm**-1
  95:      1757.31 cm**-1
  96:      2832.99 cm**-1
  97:      2909.00 cm**-1
  98:      2910.59 cm**-1
  99:      2946.35 cm**-1
 100:      2992.13 cm**-1
 101:      3014.57 cm**-1
 102:      3032.09 cm**-1
 103:      3060.00 cm**-1
 104:      3282.73 cm**-1
 105:      3289.56 cm**-1
 106:      3417.33 cm**-1
 107:      3523.37 cm**-1
 108:      3527.12 cm**-1
 109:      3588.73 cm**-1
 110:      3629.65 cm**-1

IR SPECTRUM
-----------

 Mode   freq       eps      Int      T**2         TX        TY        TZ
       cm**-1   L/(mol*cm) km/mol    a.u.
----------------------------------------------------------------------------
  6:     27.08   0.000332    1.68  0.003831  ( 0.047157 -0.036825  0.015856)
  7:     28.87   0.000463    2.34  0.005006  ( 0.001917  0.067437  0.021332)
  8:     43.12   0.001163    5.88  0.008419  ( 0.000397 -0.064005 -0.065741)
  9:     66.48   0.002038   10.30  0.009566  ( 0.056873  0.018908 -0.077294)
 10:     69.63   0.000246    1.25  0.001104  (-0.023607  0.022600 -0.006009)
 11:     77.23   0.001047    5.29  0.004232  ( 0.051887 -0.036290  0.014921)
 12:    105.08   0.000648    3.27  0.001924  ( 0.030851 -0.023775  0.020163)
 13:    127.17   0.000138    0.70  0.000340  (-0.016961  0.006451 -0.003233)
 14:    152.79   0.001461    7.38  0.002983  (-0.049018 -0.023510 -0.005290)
 15:    157.89   0.000137    0.69  0.000271  ( 0.012929  0.001591 -0.010053)
 16:    173.98   0.003357   16.96  0.006021  (-0.030189 -0.062026 -0.035533)
 17:    186.07   0.003865   19.53  0.006481  (-0.061040  0.038307 -0.035891)
 18:    191.57   0.000988    4.99  0.001610  ( 0.021209  0.031797 -0.012205)
 19:    200.65   0.006946   35.10  0.010802  (-0.019550  0.008451 -0.101727)
 20:    206.83   0.003868   19.54  0.005835  (-0.063603 -0.041966 -0.005375)
 21:    237.71   0.007582   38.32  0.009954  ( 0.039429  0.088014 -0.025544)
 22:    240.48   0.005332   26.95  0.006919  (-0.033861 -0.027815  0.070703)
 23:    242.94   0.009755   49.30  0.012530  ( 0.072634  0.081405  0.025049)
 24:    262.79   0.006077   30.71  0.007216  (-0.048112 -0.068774 -0.013095)
 25:    286.42   0.007872   39.78  0.008577  (-0.087161  0.011194 -0.029241)
 26:    290.39   0.004081   20.62  0.004385  (-0.035074  0.005472  0.055903)
 27:    297.98   0.026714  135.00  0.027976  (-0.137375 -0.073060 -0.061374)
 28:    319.58   0.003876   19.59  0.003785  (-0.007020 -0.048200  0.037584)
 29:    327.94   0.011456   57.89  0.010901  ( 0.030847 -0.075066  0.065689)
 30:    334.88   0.003563   18.01  0.003321  ( 0.040329  0.033916 -0.023321)
 31:    354.23   0.003309   16.72  0.002915  (-0.007946 -0.046639 -0.026009)
 32:    367.59   0.006215   31.41  0.005276  ( 0.060092  0.036367 -0.018516)
 33:    375.81   0.003894   19.68  0.003234  (-0.006833 -0.056319 -0.003895)
 34:    381.25   0.004477   22.63  0.003665  (-0.025030  0.003324  0.055021)
 35:    406.02   0.029068  146.90  0.022342  (-0.125525  0.080579  0.009598)
 36:    420.79   0.004689   23.69  0.003477  ( 0.010599  0.006702 -0.057619)
 37:    448.29   0.010867   54.92  0.007565  ( 0.072913  0.045459  0.013482)
 38:    460.69   0.004452   22.50  0.003015  ( 0.054645  0.000479 -0.005392)
 39:    469.51   0.014005   70.77  0.009308  (-0.060056 -0.075400 -0.004036)
 40:    489.17   0.001950    9.85  0.001244  ( 0.006518  0.029241  0.018610)
 41:    507.23   0.016234   82.04  0.009988  (-0.054074 -0.079203  0.028117)
 42:    526.57   0.003724   18.82  0.002207  ( 0.032733  0.033620 -0.002261)
 43:    541.64   0.021017  106.21  0.012109  (-0.016390  0.103389 -0.033922)
 44:    545.73   0.018313   92.54  0.010472  ( 0.089619  0.041829 -0.026279)
 45:    564.75   0.005342   27.00  0.002952  ( 0.002667 -0.040476  0.036144)
 46:    569.95   0.019833  100.23  0.010859  (-0.074666 -0.060091 -0.040900)
 47:    594.01   0.012976   65.57  0.006817  ( 0.004095 -0.040200  0.071999)
 48:    614.02   0.028214  142.58  0.014339  ( 0.049557  0.055601 -0.093764)
 49:    624.70   0.000651    3.29  0.000325  (-0.011067  0.000120  0.014234)
 50:    679.76   0.002789   14.09  0.001280  (-0.030625 -0.014066 -0.012027)
 51:    717.00   0.007247   36.62  0.003154  ( 0.022540  0.003985 -0.051285)
 52:    733.56   0.026948  136.18  0.011464  (-0.092094  0.004021 -0.054466)
 53:    780.67   0.003025   15.29  0.001209  (-0.021160  0.027443 -0.002884)
 54:    816.89   0.028521  144.13  0.010895  ( 0.103361  0.013060  0.006416)
 55:    845.15   0.041473  209.59  0.015314  (-0.120187  0.001188  0.029450)
 56:    848.39   0.000802    4.05  0.000295  ( 0.006598  0.001724  0.015765)
 57:    903.65   0.062290  314.79  0.021511  (-0.094244 -0.039330  0.105273)
 58:    909.97   0.022709  114.76  0.007788  (-0.027143 -0.063243 -0.055240)
 59:    912.27   0.081935  414.07  0.028028  ( 0.030215  0.129567  0.101624)
 60:    952.07   0.004579   23.14  0.001501  ( 0.038263  0.003788 -0.004726)
 61:    982.14   0.005538   27.99  0.001760  (-0.003356 -0.032168  0.026712)
 62:    990.43   0.005841   29.52  0.001840  (-0.035175  0.002629 -0.024417)
 63:    993.08   0.007793   39.38  0.002449  (-0.042309  0.019965  0.016132)
 64:   1016.12   0.005406   27.32  0.001660  ( 0.034461  0.018965 -0.010631)
 65:   1057.15   0.002382   12.04  0.000703  ( 0.022395 -0.012389  0.006947)
 66:   1069.80   0.040645  205.41  0.011856  ( 0.064311  0.020166 -0.085521)
 67:   1098.87   0.019568   98.89  0.005557  ( 0.071543  0.005398 -0.020239)
 68:   1099.78   0.016125   81.49  0.004576  (-0.033864  0.003719  0.058437)
 69:   1110.46   0.007837   39.60  0.002202  ( 0.025893 -0.028772 -0.026534)
 70:   1112.70   0.008538   43.15  0.002394  ( 0.025703  0.007990  0.040865)
 71:   1118.56   0.005093   25.74  0.001421  ( 0.014984 -0.009987  0.033116)
 72:   1131.07   0.023676  119.65  0.006532  ( 0.033786  0.061747  0.039725)
 73:   1143.56   0.014375   72.64  0.003923  (-0.028508  0.022930 -0.050836)
 74:   1178.02   0.076374  385.96  0.020232  ( 0.117988 -0.079193 -0.006252)
 75:   1195.65   0.002120   10.72  0.000553  ( 0.007523 -0.020487 -0.008783)
 76:   1200.69   0.009341   47.20  0.002428  ( 0.003579 -0.048414 -0.008421)
 77:   1206.87   0.014150   71.51  0.003659  (-0.009815 -0.003077  0.059607)
 78:   1236.62   0.047980  242.47  0.012108  (-0.079907  0.057033  0.049696)
 79:   1251.13   0.003308   16.72  0.000825  (-0.027366 -0.008453 -0.002176)
 80:   1260.01   0.017517   88.52  0.004338  ( 0.046327 -0.026211  0.038796)
 81:   1279.87   0.063537  321.09  0.015492  ( 0.011264  0.095227 -0.079354)
 82:   1287.66   0.025115  126.92  0.006087  ( 0.049974 -0.052997 -0.027941)
 83:   1303.20   0.021447  108.39  0.005136  ( 0.055780 -0.043709 -0.010673)
 84:   1306.61   0.001627    8.22  0.000389  ( 0.003972 -0.019250 -0.001495)
 85:   1315.74   0.012835   64.87  0.003044  (-0.004212 -0.040649 -0.037070)
 86:   1320.21   0.008189   41.39  0.001936  (-0.006639 -0.014519  0.040999)
 87:   1331.42   0.001045    5.28  0.000245  (-0.003908  0.010181 -0.011225)
 88:   1342.78   0.052769  266.68  0.012264  (-0.093913  0.047885  0.033927)
 89:   1353.86   0.011140   56.29  0.002568  ( 0.030133 -0.025417 -0.031838)
 90:   1363.15   0.000656    3.31  0.000150  (-0.003845  0.010362  0.005292)
 91:   1408.73   0.003689   18.64  0.000817  ( 0.007823  0.023986 -0.013446)
 92:   1424.31   0.009690   48.97  0.002123  (-0.020326 -0.038363 -0.015432)
 93:   1432.28   0.002761   13.95  0.000602  (-0.002482 -0.024328 -0.001905)
 94:   1729.44   0.088918  449.36  0.016045  ( 0.019030 -0.123989  0.017582)
 95:   1757.31   0.056777  286.93  0.010083  ( 0.000192 -0.084309 -0.054539)
 96:   2832.99   0.010498   53.05  0.001156  (-0.024153 -0.018812  0.014804)
 97:   2909.00   0.000207    1.05  0.000022  ( 0.003057  0.002994  0.001986)
 98:   2910.59   0.003713   18.77  0.000398  ( 0.000067 -0.019944  0.000614)
 99:   2946.35   0.005455   27.57  0.000578  (-0.000226 -0.024036  0.000197)
100:   2992.13   0.000022    0.11  0.000002  (-0.000252 -0.000466  0.001423)
101:   3014.57   0.002398   12.12  0.000248  ( 0.009010 -0.011821  0.005226)
102:   3032.09   0.000557    2.81  0.000057  (-0.000369  0.000995 -0.007496)
103:   3060.00   0.000397    2.01  0.000041  ( 0.001438 -0.005795 -0.002204)
104:   3282.73   0.024876  125.71  0.002365  (-0.030724  0.029352 -0.023649)
105:   3289.56   0.104765  529.44  0.009938  ( 0.095543 -0.001974  0.028392)
106:   3417.33   0.029343  148.29  0.002680  (-0.026256  0.029330 -0.033614)
107:   3523.37   0.005559   28.09  0.000492  (-0.020618  0.006903 -0.004426)
108:   3527.12   0.006377   32.23  0.000564  ( 0.016335 -0.000114  0.017245)
109:   3588.73   0.013829   69.89  0.001203  ( 0.012308 -0.024135  0.021646)
110:   3629.65   0.018534   93.66  0.001593  ( 0.023328 -0.025736 -0.019672)

--------------------------
THERMOCHEMISTRY AT 298.15K
--------------------------

Temperature         ... 298.15 K
Pressure            ... 1.00 atm
Total Mass          ... 346.18 AMU

Throughout the following assumptions are being made:
  (1) The electronic state is orbitally nondegenerate
  (2) There are no thermally accessible electronically excited states
  (3) Hindered rotations indicated by low frequency modes are not
      treated as such but are treated as vibrations and this may
      cause some error
  (4) All equations used are the standard statistical mechanics
      equations for an ideal gas
  (5) All vibrations are strictly harmonic

freq.      27.08  E(vib)   ...       0.55
freq.      28.87  E(vib)   ...       0.55
freq.      43.12  E(vib)   ...       0.53
freq.      66.48  E(vib)   ...       0.50
freq.      69.63  E(vib)   ...       0.50
freq.      77.23  E(vib)   ...       0.49
freq.     105.08  E(vib)   ...       0.45
freq.     127.17  E(vib)   ...       0.43
freq.     152.79  E(vib)   ...       0.40
freq.     157.89  E(vib)   ...       0.40
freq.     173.98  E(vib)   ...       0.38
freq.     186.07  E(vib)   ...       0.37
freq.     191.57  E(vib)   ...       0.36
freq.     200.65  E(vib)   ...       0.35
freq.     206.83  E(vib)   ...       0.35
freq.     237.71  E(vib)   ...       0.32
freq.     240.48  E(vib)   ...       0.31
freq.     242.94  E(vib)   ...       0.31
freq.     262.79  E(vib)   ...       0.29
freq.     286.42  E(vib)   ...       0.27
freq.     290.39  E(vib)   ...       0.27
freq.     297.98  E(vib)   ...       0.27
freq.     319.58  E(vib)   ...       0.25
freq.     327.94  E(vib)   ...       0.24
freq.     334.88  E(vib)   ...       0.24
freq.     354.23  E(vib)   ...       0.22
freq.     367.59  E(vib)   ...       0.21
freq.     375.81  E(vib)   ...       0.21
freq.     381.25  E(vib)   ...       0.21
freq.     406.02  E(vib)   ...       0.19
freq.     420.79  E(vib)   ...       0.18
freq.     448.29  E(vib)   ...       0.17
freq.     460.69  E(vib)   ...       0.16
freq.     469.51  E(vib)   ...       0.16
freq.     489.17  E(vib)   ...       0.15
freq.     507.23  E(vib)   ...       0.14
freq.     526.57  E(vib)   ...       0.13
freq.     541.64  E(vib)   ...       0.12
freq.     545.73  E(vib)   ...       0.12
freq.     564.75  E(vib)   ...       0.11
freq.     569.95  E(vib)   ...       0.11
freq.     594.01  E(vib)   ...       0.10
freq.     614.02  E(vib)   ...       0.10
freq.     624.70  E(vib)   ...       0.09
freq.     679.76  E(vib)   ...       0.08
freq.     717.00  E(vib)   ...       0.07
freq.     733.56  E(vib)   ...       0.06
freq.     780.67  E(vib)   ...       0.05
freq.     816.89  E(vib)   ...       0.05
freq.     845.15  E(vib)   ...       0.04
freq.     848.39  E(vib)   ...       0.04
freq.     903.65  E(vib)   ...       0.03
freq.     909.97  E(vib)   ...       0.03
freq.     912.27  E(vib)   ...       0.03
freq.     952.07  E(vib)   ...       0.03
freq.     982.14  E(vib)   ...       0.02
freq.     990.43  E(vib)   ...       0.02
freq.     993.08  E(vib)   ...       0.02
freq.    1016.12  E(vib)   ...       0.02
freq.    1057.15  E(vib)   ...       0.02
freq.    1069.80  E(vib)   ...       0.02
freq.    1098.87  E(vib)   ...       0.02
freq.    1099.78  E(vib)   ...       0.02
freq.    1110.46  E(vib)   ...       0.02
freq.    1112.70  E(vib)   ...       0.01
freq.    1118.56  E(vib)   ...       0.01
freq.    1131.07  E(vib)   ...       0.01
freq.    1143.56  E(vib)   ...       0.01
freq.    1178.02  E(vib)   ...       0.01
freq.    1195.65  E(vib)   ...       0.01
freq.    1200.69  E(vib)   ...       0.01
freq.    1206.87  E(vib)   ...       0.01
freq.    1236.62  E(vib)   ...       0.01
freq.    1251.13  E(vib)   ...       0.01
freq.    1260.01  E(vib)   ...       0.01
freq.    1279.87  E(vib)   ...       0.01
freq.    1287.66  E(vib)   ...       0.01
freq.    1303.20  E(vib)   ...       0.01
freq.    1306.61  E(vib)   ...       0.01
freq.    1315.74  E(vib)   ...       0.01
freq.    1320.21  E(vib)   ...       0.01
freq.    1331.42  E(vib)   ...       0.01
freq.    1342.78  E(vib)   ...       0.01
freq.    1353.86  E(vib)   ...       0.01
freq.    1363.15  E(vib)   ...       0.01
freq.    1408.73  E(vib)   ...       0.00
freq.    1424.31  E(vib)   ...       0.00
freq.    1432.28  E(vib)   ...       0.00
freq.    1729.44  E(vib)   ...       0.00
freq.    1757.31  E(vib)   ...       0.00
freq.    2832.99  E(vib)   ...       0.00
freq.    2909.00  E(vib)   ...       0.00
freq.    2910.59  E(vib)   ...       0.00
freq.    2946.35  E(vib)   ...       0.00
freq.    2992.13  E(vib)   ...       0.00
freq.    3014.57  E(vib)   ...       0.00
freq.    3032.09  E(vib)   ...       0.00
freq.    3060.00  E(vib)   ...       0.00
freq.    3282.73  E(vib)   ...       0.00
freq.    3289.56  E(vib)   ...       0.00
freq.    3417.33  E(vib)   ...       0.00
freq.    3523.37  E(vib)   ...       0.00
freq.    3527.12  E(vib)   ...       0.00
freq.    3588.73  E(vib)   ...       0.00
freq.    3629.65  E(vib)   ...       0.00

------------
INNER ENERGY
------------

The inner energy is: U= E(el) + E(ZPE) + E(vib) + E(rot) + E(trans)
    E(el)   - is the total energy from the electronic structure calculation
              = E(kin-el) + E(nuc-el) + E(el-el) + E(nuc-nuc)
    E(ZPE)  - the the zero temperature vibrational energy from the frequency calculation
    E(vib)  - the the finite temperature correction to E(ZPE) due to population
              of excited vibrational states
    E(rot)  - is the rotational thermal energy
    E(trans)- is the translational thermal energy

Summary of contributions to the inner energy U:
Electronic energy                ...    -78.40317568 Eh
Zero point energy                ...      0.26058222 Eh     163.52 kcal/mol
Thermal vibrational correction   ...      0.02096967 Eh      13.16 kcal/mol
Thermal rotational correction    ...      0.00141627 Eh       0.89 kcal/mol
Thermal translational correction ...      0.00141627 Eh       0.89 kcal/mol
-----------------------------------------------------------------------
Total thermal energy                    -78.11879125 Eh

Summary of corrections to the electronic energy:
(perhaps to be used in another calculation)
Total thermal correction                  0.02380221 Eh      14.94 kcal/mol
Non-thermal (ZPE) correction              0.26058222 Eh     163.52 kcal/mol
-----------------------------------------------------------------------
Total correction                          0.28438443 Eh     178.45 kcal/mol

--------
ENTHALPY
--------

The enthalpy is H = U + kB*T
                kB is Boltzmann's constant
Total free energy                 ...    -78.11879125 Eh

Rotational constants in cm-1:     0.020073     0.005131     0.005012

                             ****ORCA TERMINATED NORMALLY****
TOTAL RUN TIME: 0 days 0 hours 9 minutes 10 seconds 55 msec
