                         Program Version 5.0.3 -  RELEASE  -
|  1> ! XTB2 opt numfreq
|  2> * XYZ 0 1
|  3> O -1.3224 0.5315 -3.5511
|  4> C -1.4291 0.2060 -2.3616
|  5> C -2.6383 0.6277 -1.5479
|  6> C -3.6387 -0.5096 -1.3367
|  7> O -4.4081 -0.6515 -2.5408
|  8> C -4.6284 -0.2411 -0.1806
|  9> O -5.2565 1.0224 -0.4494
| 10> C -3.9363 -0.2431 1.1915
| 11> O -4.8566 -0.5665 2.2308
| 12> P -5.7708 0.6012 2.8149
| 13> O -6.6166 1.3241 1.8235
| 14> O -4.8067 1.4983 3.7068
| 15> O -6.6462 -0.1090 3.9421
| 16> C -0.2956 -0.6435 -1.7077
| 17> O 0.6837 -0.9067 -2.7171
| 18> O -0.7932 -1.9237 -1.3378
| 19> C 0.3453 0.0631 -0.4764
| 20> O -0.5967 -0.1404 0.6258
| 21> C 0.5526 1.5600 -0.7351
| 22> O 1.1101 2.0599 -1.6953
| 23> O 0.0992 2.3482 0.2589
| 24> C 1.7158 -0.4911 0.0120
| 25> O 1.4869 -1.7923 0.6065
| 26> C 2.8723 -0.5898 -1.0064
| 27> O 2.8298 -1.8822 -1.6410
| 28> C 4.2654 -0.4371 -0.3558
| 29> O 5.2739 -0.5980 -1.3776
| 30> C 4.5662 -1.4250 0.7873
| 31> O 5.9200 -1.4173 1.2278
| 32> P 6.7056 -0.0270 1.3466
| 33> O 5.9125 1.1510 1.8004
| 34> O 7.4227 0.1069 -0.0699
| 35> O 7.9347 -0.4045 2.2943
| 36> H -3.1111 1.4530 -2.0961
| 37> H -2.2912 1.0539 -0.6066
| 38> H -3.1471 -1.4700 -1.1682
| 39> H -5.0091 0.1207 -2.5689
| 40> H -5.4285 -0.9910 -0.2057
| 41> H -5.9292 1.1958 0.2463
| 42> H -3.4688 0.7223 1.4121
| 43> H -3.1643 -1.0176 1.2246
| 44> H -4.5673 1.0248 4.5227
| 45> H -7.5543 -0.2707 3.6188
| 46> H 0.2155 -0.7434 -3.5709
| 47> H -0.5449 -2.0666 -0.4042
| 48> H -0.0721 -0.3308 1.4317
| 49> H 0.2877 3.2693 -0.0335
| 50> H 2.0376 0.1549 0.8413
| 51> H 1.8211 -2.4485 -0.0466
| 52> H 2.8015 0.1684 -1.7925
| 53> H 2.1196 -1.8143 -2.3230
| 54> H 4.3555 0.5915 0.0028
| 55> H 5.0261 -1.4300 -1.8379
| 56> H 4.3676 -2.4464 0.4596
| 57> H 3.9329 -1.2197 1.6509
| 58> H 6.7731 0.0136 -0.8074
| 59> H 8.4936 0.3720 2.4700
| 60> *
| 61>
| 62>                          ****END OF INPUT****
FINAL SINGLE POINT ENERGY      -120.521114669060
FINAL SINGLE POINT ENERGY      -120.537925872640
FINAL SINGLE POINT ENERGY      -120.543334944720
FINAL SINGLE POINT ENERGY      -120.545805047550
FINAL SINGLE POINT ENERGY      -120.547312097620
FINAL SINGLE POINT ENERGY      -120.549709938510
FINAL SINGLE POINT ENERGY      -120.550557706940
FINAL SINGLE POINT ENERGY      -120.551408049520
FINAL SINGLE POINT ENERGY      -120.552335452790
FINAL SINGLE POINT ENERGY      -120.553005657420
FINAL SINGLE POINT ENERGY      -120.555331696970
FINAL SINGLE POINT ENERGY      -120.555466681510
FINAL SINGLE POINT ENERGY      -120.555557612050
FINAL SINGLE POINT ENERGY      -120.555627884530
FINAL SINGLE POINT ENERGY      -120.555717958880
FINAL SINGLE POINT ENERGY      -120.555760262930
FINAL SINGLE POINT ENERGY      -120.555785843270
FINAL SINGLE POINT ENERGY      -120.555795829310
FINAL SINGLE POINT ENERGY      -120.555799656410
                    ***********************HURRAY********************

CARTESIAN COORDINATES (ANGSTROEM)
---------------------------------
  O    -1.284729    0.574688   -3.223291
  C    -1.448540    0.338934   -2.051240
  C    -2.598972    0.779242   -1.221743
  C    -3.684923   -0.333183   -1.256818
  O    -4.346199   -0.362470   -2.481008
  C    -4.698697   -0.099785   -0.116396
  O    -5.261886    1.167504   -0.329967
  C    -4.052993   -0.241217    1.272018
  O    -4.940567   -0.827307    2.216739
  P    -6.098268    0.099602    2.834364
  O    -6.873188    0.876050    1.867897
  O    -5.392225    0.986699    3.936979
  O    -6.906498   -0.964645    3.688786
  C    -0.375885   -0.532852   -1.341647
  O     0.354813   -1.193901   -2.334982
  O    -0.978953   -1.421726   -0.477345
  C     0.572173    0.441082   -0.543932
  O    -0.175853    0.885804    0.555161
  C     0.998063    1.592879   -1.445080
  O     1.489867    1.470445   -2.533598
  O     0.789949    2.776782   -0.869125
  C     1.850809   -0.301566   -0.003352
  O     1.459080   -1.430362    0.731730
  C     2.897613   -0.731199   -1.065222
  O     2.705203   -2.087278   -1.404268
  C     4.328019   -0.587885   -0.517559
  O     5.266141   -0.823339   -1.539572
  C     4.585084   -1.524136    0.672043
  O     5.950729   -1.540211    1.024343
  P     6.680384   -0.115824    1.239690
  O     5.786015    0.933056    1.744952
  O     7.466632    0.170460   -0.100467
  O     7.878494   -0.492569    2.197881
  H    -3.036926    1.690196   -1.629875
  H    -2.272956    0.926525   -0.196595
  H    -3.214276   -1.311191   -1.133559
  H    -4.884444    0.439878   -2.536801
  H    -5.469586   -0.883072   -0.202403
  H    -5.962768    1.300056    0.333683
  H    -3.735717    0.744448    1.625320
  H    -3.192511   -0.912390    1.223843
  H    -5.005326    0.461061    4.637456
  H    -7.605214   -1.360688    3.171361
  H     0.094844   -0.790245   -3.187357
  H    -0.334077   -1.655708    0.217431
  H     0.284127    1.620406    0.980378
  H     1.056790    3.495758   -1.465233
  H     2.319316    0.409338    0.692478
  H     1.782216   -2.200994    0.221053
  H     2.820741   -0.103992   -1.958611
  H     1.899630   -2.122413   -1.952890
  H     4.493944    0.443765   -0.196427
  H     5.083589   -1.700335   -1.905137
  H     4.337635   -2.554727    0.402328
  H     3.983254   -1.204159    1.526493
  H     6.929183   -0.044857   -0.872561
  H     7.688244   -0.176329    3.079956

FINAL SINGLE POINT ENERGY      -120.555801346640

VIBRATIONAL FREQUENCIES
-----------------------

Scaling factor for frequencies =  1.000000000 (already applied!)

   0:         0.00 cm**-1
   1:         0.00 cm**-1
   2:         0.00 cm**-1
   3:         0.00 cm**-1
   4:         0.00 cm**-1
   5:         0.00 cm**-1
   6:         3.18 cm**-1
   7:        10.30 cm**-1
   8:        19.00 cm**-1
   9:        24.18 cm**-1
  10:        26.75 cm**-1
  11:        33.11 cm**-1
  12:        37.23 cm**-1
  13:        40.85 cm**-1
  14:        42.82 cm**-1
  15:        62.77 cm**-1
  16:        73.21 cm**-1
  17:        77.52 cm**-1
  18:        89.92 cm**-1
  19:       110.91 cm**-1
  20:       117.85 cm**-1
  21:       122.16 cm**-1
  22:       132.68 cm**-1
  23:       137.08 cm**-1
  24:       145.95 cm**-1
  25:       150.86 cm**-1
  26:       167.22 cm**-1
  27:       169.86 cm**-1
  28:       179.97 cm**-1
  29:       196.25 cm**-1
  30:       203.36 cm**-1
  31:       206.91 cm**-1
  32:       215.05 cm**-1
  33:       218.75 cm**-1
  34:       229.56 cm**-1
  35:       248.08 cm**-1
  36:       254.46 cm**-1
  37:       270.40 cm**-1
  38:       290.27 cm**-1
  39:       305.60 cm**-1
  40:       312.42 cm**-1
  41:       314.57 cm**-1
  42:       318.14 cm**-1
  43:       322.37 cm**-1
  44:       327.13 cm**-1
  45:       348.00 cm**-1
  46:       349.89 cm**-1
  47:       353.42 cm**-1
  48:       363.46 cm**-1
  49:       376.59 cm**-1
  50:       377.75 cm**-1
  51:       394.35 cm**-1
  52:       398.64 cm**-1
  53:       401.84 cm**-1
  54:       412.04 cm**-1
  55:       416.96 cm**-1
  56:       423.02 cm**-1
  57:       434.76 cm**-1
  58:       445.41 cm**-1
  59:       451.08 cm**-1
  60:       462.03 cm**-1
  61:       471.02 cm**-1
  62:       471.32 cm**-1
  63:       485.99 cm**-1
  64:       492.35 cm**-1
  65:       509.52 cm**-1
  66:       526.78 cm**-1
  67:       547.52 cm**-1
  68:       570.40 cm**-1
  69:       576.06 cm**-1
  70:       580.81 cm**-1
  71:       614.37 cm**-1
  72:       637.14 cm**-1
  73:       648.59 cm**-1
  74:       656.07 cm**-1
  75:       672.87 cm**-1
  76:       691.80 cm**-1
  77:       713.29 cm**-1
  78:       722.07 cm**-1
  79:       723.74 cm**-1
  80:       734.45 cm**-1
  81:       744.84 cm**-1
  82:       759.92 cm**-1
  83:       818.60 cm**-1
  84:       825.68 cm**-1
  85:       842.88 cm**-1
  86:       876.04 cm**-1
  87:       877.39 cm**-1
  88:       883.31 cm**-1
  89:       903.39 cm**-1
  90:       905.56 cm**-1
  91:       909.44 cm**-1
  92:       911.62 cm**-1
  93:       929.27 cm**-1
  94:       941.33 cm**-1
  95:       945.06 cm**-1
  96:       963.12 cm**-1
  97:       978.86 cm**-1
  98:       987.36 cm**-1
  99:      1023.13 cm**-1
 100:      1032.29 cm**-1
 101:      1044.17 cm**-1
 102:      1054.59 cm**-1
 103:      1068.14 cm**-1
 104:      1074.54 cm**-1
 105:      1083.93 cm**-1
 106:      1085.80 cm**-1
 107:      1101.60 cm**-1
 108:      1106.30 cm**-1
 109:      1114.03 cm**-1
 110:      1121.92 cm**-1
 111:      1127.19 cm**-1
 112:      1133.91 cm**-1
 113:      1139.54 cm**-1
 114:      1147.34 cm**-1
 115:      1175.16 cm**-1
 116:      1184.99 cm**-1
 117:      1198.15 cm**-1
 118:      1200.62 cm**-1
 119:      1210.93 cm**-1
 120:      1225.67 cm**-1
 121:      1231.28 cm**-1
 122:      1235.20 cm**-1
 123:      1247.53 cm**-1
 124:      1248.11 cm**-1
 125:      1251.81 cm**-1
 126:      1254.22 cm**-1
 127:      1265.62 cm**-1
 128:      1270.63 cm**-1
 129:      1283.57 cm**-1
 130:      1284.62 cm**-1
 131:      1292.06 cm**-1
 132:      1299.35 cm**-1
 133:      1316.16 cm**-1
 134:      1324.03 cm**-1
 135:      1332.38 cm**-1
 136:      1334.54 cm**-1
 137:      1338.91 cm**-1
 138:      1342.71 cm**-1
 139:      1348.85 cm**-1
 140:      1351.11 cm**-1
 141:      1357.96 cm**-1
 142:      1422.44 cm**-1
 143:      1442.80 cm**-1
 144:      1444.88 cm**-1
 145:      1758.61 cm**-1
 146:      1793.94 cm**-1
 147:      2856.02 cm**-1
 148:      2889.62 cm**-1
 149:      2939.56 cm**-1
 150:      2951.20 cm**-1
 151:      2959.15 cm**-1
 152:      2963.26 cm**-1
 153:      2970.62 cm**-1
 154:      2981.46 cm**-1
 155:      2985.22 cm**-1
 156:      3006.62 cm**-1
 157:      3053.88 cm**-1
 158:      3238.74 cm**-1
 159:      3260.54 cm**-1
 160:      3298.21 cm**-1
 161:      3338.16 cm**-1
 162:      3340.90 cm**-1
 163:      3428.46 cm**-1
 164:      3428.98 cm**-1
 165:      3483.17 cm**-1
 166:      3488.93 cm**-1
 167:      3512.75 cm**-1
 168:      3599.11 cm**-1
 169:      3620.33 cm**-1
 170:      3635.23 cm**-1

IR SPECTRUM
-----------

 Mode   freq       eps      Int      T**2         TX        TY        TZ
       cm**-1   L/(mol*cm) km/mol    a.u.
----------------------------------------------------------------------------
  6:      3.18   0.000000    0.00  0.000000  ( 0.000000  0.000000  0.000000)
  7:     10.30   0.000169    0.86  0.005128  (-0.001423 -0.048149  0.052989)
  8:     19.00   0.000057    0.29  0.000930  (-0.018968 -0.023427 -0.004582)
  9:     24.18   0.000402    2.03  0.005192  (-0.007087  0.011542 -0.070768)
 10:     26.75   0.000963    4.87  0.011235  ( 0.104742 -0.016020  0.002825)
 11:     33.11   0.000874    4.42  0.008235  (-0.026894 -0.086608  0.003287)
 12:     37.23   0.000584    2.95  0.004898  ( 0.034421 -0.041021  0.045056)
 13:     40.85   0.000380    1.92  0.002903  (-0.052924  0.009912  0.001959)
 14:     42.82   0.000441    2.23  0.003214  ( 0.049574  0.012404 -0.024546)
 15:     62.77   0.000080    0.40  0.000396  (-0.001305 -0.019634 -0.003036)
 16:     73.21   0.000195    0.99  0.000832  ( 0.010735 -0.024380 -0.011082)
 17:     77.52   0.000303    1.53  0.001220  (-0.034771  0.003272 -0.000014)
 18:     89.92   0.000373    1.88  0.001294  (-0.011774 -0.017108 -0.029370)
 19:    110.91   0.000883    4.46  0.002486  ( 0.036926 -0.008525  0.032397)
 20:    117.85   0.000316    1.60  0.000837  ( 0.010646  0.026574  0.004190)
 21:    122.16   0.000827    4.18  0.002112  ( 0.029391 -0.035080  0.004245)
 22:    132.68   0.000538    2.72  0.001265  (-0.014326 -0.031969 -0.006185)
 23:    137.08   0.000507    2.56  0.001155  (-0.023229  0.005351 -0.024225)
 24:    145.95   0.002997   15.14  0.006407  (-0.076894  0.017394 -0.013849)
 25:    150.86   0.001725    8.72  0.003568  (-0.006808 -0.054270 -0.024003)
 26:    167.22   0.002490   12.58  0.004647  (-0.012256  0.046988  0.047846)
 27:    169.86   0.002335   11.80  0.004290  (-0.015115  0.057859  0.026728)
 28:    179.97   0.004886   24.69  0.008472  (-0.043806  0.080782 -0.005248)
 29:    196.25   0.004085   20.64  0.006495  ( 0.026726 -0.072718  0.022199)
 30:    203.36   0.012422   62.77  0.019062  (-0.024282  0.093793 -0.098360)
 31:    206.91   0.009968   50.38  0.015034  (-0.067282 -0.102428  0.003983)
 32:    215.05   0.003119   15.76  0.004526  ( 0.046532  0.016054  0.045862)
 33:    218.75   0.014351   72.52  0.020473  (-0.007293  0.108940 -0.092474)
 34:    229.56   0.010627   53.71  0.014447  ( 0.085009 -0.082831  0.018957)
 35:    248.08   0.000223    1.13  0.000281  ( 0.009172  0.001502  0.013936)
 36:    254.46   0.005689   28.75  0.006977  ( 0.052071 -0.064176 -0.012147)
 37:    270.40   0.002588   13.08  0.002986  (-0.049323  0.021008  0.010597)
 38:    290.27   0.000947    4.79  0.001019  ( 0.009086 -0.001223  0.030569)
 39:    305.60   0.003152   15.93  0.003219  ( 0.042712  0.037108  0.004217)
 40:    312.42   0.016847   85.14  0.016828  ( 0.118227  0.018181 -0.050195)
 41:    314.57   0.008738   44.16  0.008668  (-0.008545  0.081294  0.044566)
 42:    318.14   0.013247   66.94  0.012994  ( 0.088489 -0.035543 -0.062450)
 43:    322.37   0.004717   23.84  0.004566  (-0.027004 -0.048407  0.038651)
 44:    327.13   0.001736    8.77  0.001656  (-0.008576 -0.039673 -0.002909)
 45:    348.00   0.001736    8.78  0.001557  ( 0.034409 -0.009013 -0.017086)
 46:    349.89   0.002134   10.79  0.001904  (-0.006785 -0.014171  0.040704)
 47:    353.42   0.001112    5.62  0.000982  (-0.012508  0.026141 -0.011920)
 48:    363.46   0.000593    2.99  0.000509  (-0.013756 -0.017421  0.004000)
 49:    376.59   0.001167    5.90  0.000967  (-0.020953  0.018868  0.013127)
 50:    377.75   0.007080   35.78  0.005849  (-0.067984 -0.010064 -0.033552)
 51:    394.35   0.016598   83.88  0.013135  ( 0.051441 -0.025733  0.099128)
 52:    398.64   0.006733   34.02  0.005270  (-0.009578  0.027349  0.066564)
 53:    401.84   0.014373   72.63  0.011162  (-0.067113 -0.057007 -0.058376)
 54:    412.04   0.010391   52.51  0.007870  (-0.049973  0.073231  0.003141)
 55:    416.96   0.005379   27.18  0.004026  (-0.037343 -0.039278 -0.032989)
 56:    423.02   0.013330   67.36  0.009834  ( 0.006703  0.076649 -0.062559)
 57:    434.76   0.009448   47.75  0.006782  (-0.081770  0.007364  0.006423)
 58:    445.41   0.001131    5.72  0.000793  (-0.027902 -0.003358  0.001666)
 59:    451.08   0.030957  156.44  0.021416  ( 0.142018  0.012301  0.033101)
 60:    462.03   0.042913  216.86  0.028984  (-0.135254 -0.045027  0.093073)
 61:    471.02   0.003875   19.58  0.002567  (-0.037307  0.034225  0.002011)
 62:    471.32   0.005492   27.75  0.003636  (-0.032284 -0.008729 -0.050176)
 63:    485.99   0.032136  162.40  0.020635  ( 0.083076 -0.115596 -0.019263)
 64:    492.35   0.020499  103.59  0.012993  (-0.018136 -0.081099  0.078019)
 65:    509.52   0.002260   11.42  0.001384  (-0.020706  0.017080 -0.025764)
 66:    526.78   0.008444   42.67  0.005002  (-0.021725  0.051768  0.043016)
 67:    547.52   0.020595  104.08  0.011738  (-0.092341  0.055874 -0.009454)
 68:    570.40   0.017420   88.03  0.009531  ( 0.009418 -0.015760 -0.095883)
 69:    576.06   0.018965   95.84  0.010274  (-0.021909 -0.015044 -0.097814)
 70:    580.81   0.004759   24.05  0.002557  ( 0.017216  0.034269  0.032960)
 71:    614.37   0.020344  102.81  0.010333  (-0.079891  0.018430 -0.060092)
 72:    637.14   0.020546  103.83  0.010063  (-0.067387  0.053486 -0.051588)
 73:    648.59   0.044612  225.45  0.021465  ( 0.080746  0.083947  0.088868)
 74:    656.07   0.002403   12.14  0.001143  ( 0.032871 -0.004155 -0.006719)
 75:    672.87   0.006824   34.48  0.003165  (-0.036202 -0.020448  0.037894)
 76:    691.80   0.001434    7.25  0.000647  ( 0.001557 -0.023738  0.009008)
 77:    713.29   0.054790  276.89  0.023970  ( 0.153516 -0.014395  0.014004)
 78:    722.07   0.000749    3.79  0.000324  ( 0.008237  0.015999  0.000261)
 79:    723.74   0.017987   90.90  0.007756  ( 0.080593  0.001980 -0.035446)
 80:    734.45   0.035898  181.41  0.015253  (-0.042156 -0.113611 -0.023837)
 81:    744.84   0.020162  101.89  0.008447  (-0.066199  0.056271  0.029975)
 82:    759.92   0.009425   47.63  0.003870  (-0.011241  0.051515  0.033018)
 83:    818.60   0.021366  107.97  0.008145  (-0.043619  0.033989  0.071325)
 84:    825.68   0.013521   68.33  0.005110  ( 0.064704  0.027968  0.011886)
 85:    842.88   0.039772  200.99  0.014725  ( 0.107013  0.021422 -0.053051)
 86:    876.04   0.033264  168.10  0.011849  (-0.050891  0.042323 -0.086419)
 87:    877.39   0.003104   15.68  0.001104  (-0.018901  0.011734  0.024677)
 88:    883.31   0.040359  203.96  0.014259  (-0.006788  0.043516 -0.110990)
 89:    903.39   0.005900   29.82  0.002038  (-0.023284  0.035983 -0.014187)
 90:    905.56   0.010139   51.24  0.003494  ( 0.014204 -0.031186 -0.048164)
 91:    909.44   0.079554  402.03  0.027298  ( 0.034299  0.013618 -0.161047)
 92:    911.62   0.085307  431.11  0.029202  (-0.074712 -0.152157 -0.021650)
 93:    929.27   0.007982   40.34  0.002680  (-0.034783  0.031615  0.021702)
 94:    941.33   0.029766  150.43  0.009868  (-0.089323 -0.042297  0.010017)
 95:    945.06   0.003493   17.65  0.001153  ( 0.022650  0.024665 -0.005645)
 96:    963.12   0.088205  445.75  0.028580  ( 0.160743  0.049498 -0.017067)
 97:    978.86   0.008052   40.69  0.002567  (-0.039963 -0.003197  0.030980)
 98:    987.36   0.009485   47.94  0.002998  ( 0.030364  0.039184 -0.023251)
 99:   1023.13   0.004361   22.04  0.001330  (-0.010973 -0.024412  0.024771)
100:   1032.29   0.007788   39.36  0.002354  ( 0.048444 -0.002149  0.001685)
101:   1044.17   0.013534   68.39  0.004045  (-0.037829  0.002048  0.051084)
102:   1054.59   0.012797   64.67  0.003787  ( 0.024113 -0.053541 -0.018404)
103:   1068.14   0.011583   58.54  0.003384  (-0.048503 -0.020969 -0.024326)
104:   1074.54   0.025594  129.34  0.007433  (-0.047677 -0.019077  0.069252)
105:   1083.93   0.009636   48.70  0.002774  ( 0.015490 -0.014551  0.048192)
106:   1085.80   0.026019  131.49  0.007478  ( 0.076198  0.031331 -0.026272)
107:   1101.60   0.013307   67.25  0.003770  ( 0.042377 -0.035506  0.026704)
108:   1106.30   0.056043  283.22  0.015809  (-0.095299 -0.074720 -0.033818)
109:   1114.03   0.014558   73.57  0.004078  (-0.062125 -0.002560  0.014561)
110:   1121.92   0.055750  281.74  0.015507  (-0.057768 -0.109912  0.009431)
111:   1127.19   0.025375  128.23  0.007025  ( 0.022516 -0.072422 -0.035680)
112:   1133.91   0.035336  178.57  0.009725  ( 0.078595 -0.058049  0.013337)
113:   1139.54   0.042909  216.84  0.011751  (-0.044636  0.019822  0.096775)
114:   1147.34   0.002025   10.23  0.000551  (-0.015244  0.001312 -0.017796)
115:   1175.16   0.030091  152.07  0.007991  (-0.073024  0.038890  0.033848)
116:   1184.99   0.030447  153.87  0.008018  (-0.063676 -0.012449  0.061714)
117:   1198.15   0.008451   42.71  0.002201  ( 0.015944  0.026689 -0.035137)
118:   1200.62   0.009401   47.51  0.002443  ( 0.034735 -0.014507  0.032039)
119:   1210.93   0.001822    9.21  0.000470  ( 0.015454 -0.014883  0.003047)
120:   1225.67   0.006365   32.17  0.001621  ( 0.031884  0.021570  0.011779)
121:   1231.28   0.005046   25.50  0.001279  ( 0.002888 -0.035643  0.000485)
122:   1235.20   0.010783   54.49  0.002724  (-0.022847 -0.045135  0.012850)
123:   1247.53   0.024973  126.20  0.006247  ( 0.077140 -0.001895 -0.017110)
124:   1248.11   0.120724  610.09  0.030185  (-0.086295  0.141914  0.050972)
125:   1251.81   0.011720   59.23  0.002922  (-0.019606 -0.042804  0.026553)
126:   1254.22   0.013479   68.12  0.003354  ( 0.016876  0.055368  0.001809)
127:   1265.62   0.077457  391.43  0.019098  (-0.059279  0.081103 -0.094904)
128:   1270.63   0.006457   32.63  0.001586  (-0.019457 -0.024919  0.024212)
129:   1283.57   0.007908   39.96  0.001923  (-0.004328 -0.038538  0.020460)
130:   1284.62   0.014007   70.79  0.003403  ( 0.044639  0.001236 -0.037530)
131:   1292.06   0.004834   24.43  0.001167  ( 0.022922  0.019257 -0.016469)
132:   1299.35   0.009621   48.62  0.002311  ( 0.046856 -0.010669 -0.001156)
133:   1316.16   0.002260   11.42  0.000536  (-0.020758 -0.007781  0.006663)
134:   1324.03   0.007990   40.38  0.001883  (-0.018616 -0.012068  0.037295)
135:   1332.38   0.020334  102.76  0.004763  ( 0.058192 -0.022895 -0.029189)
136:   1334.54   0.001633    8.25  0.000382  (-0.004236 -0.003571 -0.018740)
137:   1338.91   0.026966  136.27  0.006285  (-0.037988 -0.054074  0.043794)
138:   1342.71   0.007322   37.00  0.001702  (-0.009476 -0.002290  0.040083)
139:   1348.85   0.015322   77.43  0.003545  (-0.056987 -0.011676 -0.012684)
140:   1351.11   0.024993  126.30  0.005773  (-0.034263  0.055016  0.039646)
141:   1357.96   0.005316   26.87  0.001222  ( 0.020970  0.020189 -0.019349)
142:   1422.44   0.002318   11.71  0.000508  ( 0.001024  0.022430 -0.002072)
143:   1442.80   0.002852   14.41  0.000617  ( 0.023855  0.006420  0.002563)
144:   1444.88   0.002193   11.08  0.000474  ( 0.004463  0.021259  0.001359)
145:   1758.61   0.026115  131.97  0.004634  (-0.009251 -0.024129  0.062978)
146:   1793.94   0.095199  481.10  0.016560  ( 0.052281 -0.016074 -0.116485)
147:   2856.02   0.007346   37.13  0.000803  (-0.019275 -0.020727 -0.001248)
148:   2889.62   0.009446   47.74  0.001020  (-0.016219 -0.026107 -0.008687)
149:   2939.56   0.008586   43.39  0.000911  (-0.016387 -0.025354 -0.000295)
150:   2951.20   0.004383   22.15  0.000463  ( 0.013595 -0.016633 -0.001415)
151:   2959.15   0.004693   23.72  0.000495  (-0.015861 -0.015599  0.000166)
152:   2963.26   0.001306    6.60  0.000138  (-0.011536 -0.000838  0.001931)
153:   2970.62   0.000840    4.24  0.000088  ( 0.009380 -0.000460 -0.000203)
154:   2981.46   0.006047   30.56  0.000633  ( 0.001957 -0.025051 -0.001221)
155:   2985.22   0.003401   17.19  0.000356  ( 0.005692 -0.017969  0.000498)
156:   3006.62   0.008013   40.49  0.000832  ( 0.006908 -0.027975  0.001159)
157:   3053.88   0.001069    5.40  0.000109  ( 0.009395 -0.004581  0.000072)
158:   3238.74   0.029914  151.17  0.002882  ( 0.040777 -0.025482 -0.023879)
159:   3260.54   0.042456  214.55  0.004063  (-0.047730  0.022327 -0.035871)
160:   3298.21   0.040550  204.93  0.003837  ( 0.042941  0.013353  0.042597)
161:   3338.16   0.094786  479.01  0.008861  (-0.073378 -0.010067  0.058097)
162:   3340.90   0.057512  290.64  0.005372  ( 0.059427 -0.002431  0.042832)
163:   3428.46   0.045288  228.87  0.004122  (-0.036202 -0.003337 -0.052919)
164:   3428.98   0.010751   54.33  0.000978  ( 0.016056  0.024389 -0.011216)
165:   3483.17   0.008763   44.29  0.000785  (-0.011493  0.025017 -0.005212)
166:   3488.93   0.004166   21.05  0.000373  (-0.004520  0.017011  0.007928)
167:   3512.75   0.005501   27.80  0.000489  ( 0.002458  0.019858  0.009397)
168:   3599.11   0.010729   54.22  0.000930  (-0.009532  0.007366 -0.028021)
169:   3620.33   0.008869   44.82  0.000764  (-0.002773  0.000527 -0.027505)
170:   3635.23   0.006747   34.10  0.000579  (-0.019961 -0.002876 -0.013135)

--------------------------
THERMOCHEMISTRY AT 298.15K
--------------------------

Temperature         ... 298.15 K
Pressure            ... 1.00 atm
Total Mass          ... 534.25 AMU

Throughout the following assumptions are being made:
  (1) The electronic state is orbitally nondegenerate
  (2) There are no thermally accessible electronically excited states
  (3) Hindered rotations indicated by low frequency modes are not
      treated as such but are treated as vibrations and this may
      cause some error
  (4) All equations used are the standard statistical mechanics
      equations for an ideal gas
  (5) All vibrations are strictly harmonic

freq.       3.18  E(vib)   ...       0.59
freq.      10.30  E(vib)   ...       0.58
freq.      19.00  E(vib)   ...       0.57
freq.      24.18  E(vib)   ...       0.56
freq.      26.75  E(vib)   ...       0.56
freq.      33.11  E(vib)   ...       0.55
freq.      37.23  E(vib)   ...       0.54
freq.      40.85  E(vib)   ...       0.54
freq.      42.82  E(vib)   ...       0.53
freq.      62.77  E(vib)   ...       0.51
freq.      73.21  E(vib)   ...       0.49
freq.      77.52  E(vib)   ...       0.49
freq.      89.92  E(vib)   ...       0.47
freq.     110.91  E(vib)   ...       0.45
freq.     117.85  E(vib)   ...       0.44
freq.     122.16  E(vib)   ...       0.43
freq.     132.68  E(vib)   ...       0.42
freq.     137.08  E(vib)   ...       0.42
freq.     145.95  E(vib)   ...       0.41
freq.     150.86  E(vib)   ...       0.40
freq.     167.22  E(vib)   ...       0.39
freq.     169.86  E(vib)   ...       0.38
freq.     179.97  E(vib)   ...       0.37
freq.     196.25  E(vib)   ...       0.36
freq.     203.36  E(vib)   ...       0.35
freq.     206.91  E(vib)   ...       0.35
freq.     215.05  E(vib)   ...       0.34
freq.     218.75  E(vib)   ...       0.33
freq.     229.56  E(vib)   ...       0.32
freq.     248.08  E(vib)   ...       0.31
freq.     254.46  E(vib)   ...       0.30
freq.     270.40  E(vib)   ...       0.29
freq.     290.27  E(vib)   ...       0.27
freq.     305.60  E(vib)   ...       0.26
freq.     312.42  E(vib)   ...       0.25
freq.     314.57  E(vib)   ...       0.25
freq.     318.14  E(vib)   ...       0.25
freq.     322.37  E(vib)   ...       0.25
freq.     327.13  E(vib)   ...       0.24
freq.     348.00  E(vib)   ...       0.23
freq.     349.89  E(vib)   ...       0.23
freq.     353.42  E(vib)   ...       0.22
freq.     363.46  E(vib)   ...       0.22
freq.     376.59  E(vib)   ...       0.21
freq.     377.75  E(vib)   ...       0.21
freq.     394.35  E(vib)   ...       0.20
freq.     398.64  E(vib)   ...       0.19
freq.     401.84  E(vib)   ...       0.19
freq.     412.04  E(vib)   ...       0.19
freq.     416.96  E(vib)   ...       0.18
freq.     423.02  E(vib)   ...       0.18
freq.     434.76  E(vib)   ...       0.17
freq.     445.41  E(vib)   ...       0.17
freq.     451.08  E(vib)   ...       0.16
freq.     462.03  E(vib)   ...       0.16
freq.     471.02  E(vib)   ...       0.15
freq.     471.32  E(vib)   ...       0.15
freq.     485.99  E(vib)   ...       0.15
freq.     492.35  E(vib)   ...       0.14
freq.     509.52  E(vib)   ...       0.14
freq.     526.78  E(vib)   ...       0.13
freq.     547.52  E(vib)   ...       0.12
freq.     570.40  E(vib)   ...       0.11
freq.     576.06  E(vib)   ...       0.11
freq.     580.81  E(vib)   ...       0.11
freq.     614.37  E(vib)   ...       0.10
freq.     637.14  E(vib)   ...       0.09
freq.     648.59  E(vib)   ...       0.08
freq.     656.07  E(vib)   ...       0.08
freq.     672.87  E(vib)   ...       0.08
freq.     691.80  E(vib)   ...       0.07
freq.     713.29  E(vib)   ...       0.07
freq.     722.07  E(vib)   ...       0.07
freq.     723.74  E(vib)   ...       0.06
freq.     734.45  E(vib)   ...       0.06
freq.     744.84  E(vib)   ...       0.06
freq.     759.92  E(vib)   ...       0.06
freq.     818.60  E(vib)   ...       0.05
freq.     825.68  E(vib)   ...       0.04
freq.     842.88  E(vib)   ...       0.04
freq.     876.04  E(vib)   ...       0.04
freq.     877.39  E(vib)   ...       0.04
freq.     883.31  E(vib)   ...       0.04
freq.     903.39  E(vib)   ...       0.03
freq.     905.56  E(vib)   ...       0.03
freq.     909.44  E(vib)   ...       0.03
freq.     911.62  E(vib)   ...       0.03
freq.     929.27  E(vib)   ...       0.03
freq.     941.33  E(vib)   ...       0.03
freq.     945.06  E(vib)   ...       0.03
freq.     963.12  E(vib)   ...       0.03
freq.     978.86  E(vib)   ...       0.03
freq.     987.36  E(vib)   ...       0.02
freq.    1023.13  E(vib)   ...       0.02
freq.    1032.29  E(vib)   ...       0.02
freq.    1044.17  E(vib)   ...       0.02
freq.    1054.59  E(vib)   ...       0.02
freq.    1068.14  E(vib)   ...       0.02
freq.    1074.54  E(vib)   ...       0.02
freq.    1083.93  E(vib)   ...       0.02
freq.    1085.80  E(vib)   ...       0.02
freq.    1101.60  E(vib)   ...       0.02
freq.    1106.30  E(vib)   ...       0.02
freq.    1114.03  E(vib)   ...       0.01
freq.    1121.92  E(vib)   ...       0.01
freq.    1127.19  E(vib)   ...       0.01
freq.    1133.91  E(vib)   ...       0.01
freq.    1139.54  E(vib)   ...       0.01
freq.    1147.34  E(vib)   ...       0.01
freq.    1175.16  E(vib)   ...       0.01
freq.    1184.99  E(vib)   ...       0.01
freq.    1198.15  E(vib)   ...       0.01
freq.    1200.62  E(vib)   ...       0.01
freq.    1210.93  E(vib)   ...       0.01
freq.    1225.67  E(vib)   ...       0.01
freq.    1231.28  E(vib)   ...       0.01
freq.    1235.20  E(vib)   ...       0.01
freq.    1247.53  E(vib)   ...       0.01
freq.    1248.11  E(vib)   ...       0.01
freq.    1251.81  E(vib)   ...       0.01
freq.    1254.22  E(vib)   ...       0.01
freq.    1265.62  E(vib)   ...       0.01
freq.    1270.63  E(vib)   ...       0.01
freq.    1283.57  E(vib)   ...       0.01
freq.    1284.62  E(vib)   ...       0.01
freq.    1292.06  E(vib)   ...       0.01
freq.    1299.35  E(vib)   ...       0.01
freq.    1316.16  E(vib)   ...       0.01
freq.    1324.03  E(vib)   ...       0.01
freq.    1332.38  E(vib)   ...       0.01
freq.    1334.54  E(vib)   ...       0.01
freq.    1338.91  E(vib)   ...       0.01
freq.    1342.71  E(vib)   ...       0.01
freq.    1348.85  E(vib)   ...       0.01
freq.    1351.11  E(vib)   ...       0.01
freq.    1357.96  E(vib)   ...       0.01
freq.    1422.44  E(vib)   ...       0.00
freq.    1442.80  E(vib)   ...       0.00
freq.    1444.88  E(vib)   ...       0.00
freq.    1758.61  E(vib)   ...       0.00
freq.    1793.94  E(vib)   ...       0.00
freq.    2856.02  E(vib)   ...       0.00
freq.    2889.62  E(vib)   ...       0.00
freq.    2939.56  E(vib)   ...       0.00

Rotational constants in cm-1:     0.007153     0.001427     0.001296

                             ****ORCA TERMINATED NORMALLY****
TOTAL RUN TIME: 0 days 0 hours 14 minutes 43 seconds 938 msec
