                         Program Version 5.0.3 -  RELEASE  -
|  1> ! XTB2 opt numfreq
|  2> * XYZ 0 1
|  3> O 0.2146 2.3360 1.0893
|  4> C 0.6725 1.6360 0.2017
|  5> O 1.0582 2.1807 -0.9715
|  6> C 0.8873 0.1108 0.2426
|  7> O 1.6464 -0.3357 -0.8857
|  8> C 1.7073 -0.2206 1.5191
|  9> C 3.1548 0.3137 1.6050
| 10> O 3.1613 1.7393 1.5516
| 11> C 4.1161 -0.3016 0.5612
| 12> O 5.3357 -0.6833 1.2340
| 13> C 4.4995 0.6427 -0.5803
| 14> O 5.0541 -0.1446 -1.6345
| 15> P 4.5756 0.2054 -3.1200
| 16> O 3.1284 0.4923 -3.3319
| 17> O 5.5041 1.4218 -3.5706
| 18> O 5.1818 -0.9694 -4.0074
| 19> C -0.5206 -0.5921 0.2423
| 20> O -1.1836 -0.3972 1.5075
| 21> C -0.3120 -2.0997 0.0214
| 22> O -0.1734 -2.6797 -1.0436
| 23> O -0.3265 -2.7939 1.1844
| 24> C -1.4735 -0.0839 -0.8820
| 25> O -0.7968 0.0155 -2.1540
| 26> C -2.7804 -0.8848 -1.1344
| 27> O -3.5130 -0.1687 -2.1549
| 28> C -3.6978 -1.1187 0.0801
| 29> O -4.6837 -2.1080 -0.2738
| 30> C -4.4187 0.1429 0.5546
| 31> O -5.1647 -0.1942 1.7235
| 32> P -6.0374 0.9752 2.3751
| 33> O -6.9854 1.6949 1.4867
| 34> O -4.9747 1.9578 3.0432
| 35> O -6.6782 0.3080 3.6757
| 36> H 0.9034 3.1419 -0.8618
| 37> H 1.4471 0.2774 -1.6340
| 38> H 1.1673 0.1643 2.3932
| 39> H 1.7705 -1.3076 1.6367
| 40> H 3.5283 0.0489 2.6019
| 41> H 2.7198 2.0671 2.3573
| 42> H 3.7125 -1.2456 0.1800
| 43> H 5.9095 -1.0720 0.5461
| 44> H 3.6433 1.2138 -0.9448
| 45> H 5.2744 1.3490 -0.2637
| 46> H 5.0511 1.9352 -4.2668
| 47> H 6.1419 -1.0500 -3.8697
| 48> H -0.8751 -1.1164 2.0984
| 49> H -0.2055 -3.7283 0.9030
| 50> H -1.7752 0.9431 -0.6420
| 51> H -0.4733 -0.8799 -2.3951
| 52> H -2.5462 -1.8504 -1.5952
| 53> H -2.8564 0.0712 -2.8381
| 54> H -3.1522 -1.5759 0.9070
| 55> H -5.3961 -2.0325 0.3883
| 56> H -5.1210 0.5008 -0.2050
| 57> H -3.7106 0.9373 0.8026
| 58> H -5.3531 2.8549 3.0937
| 59> H -5.9821 -0.0433 4.2544
| 60> *
| 61>
| 62>                          ****END OF INPUT****
FINAL SINGLE POINT ENERGY      -120.525141001230
FINAL SINGLE POINT ENERGY      -120.544336982330
FINAL SINGLE POINT ENERGY      -120.551741396330
FINAL SINGLE POINT ENERGY      -120.554176372790
FINAL SINGLE POINT ENERGY      -120.555154439960
FINAL SINGLE POINT ENERGY      -120.555774317950
FINAL SINGLE POINT ENERGY      -120.556188949190
FINAL SINGLE POINT ENERGY      -120.556678760500
FINAL SINGLE POINT ENERGY      -120.556943734750
FINAL SINGLE POINT ENERGY      -120.557201378260
FINAL SINGLE POINT ENERGY      -120.578223759180
FINAL SINGLE POINT ENERGY      -120.578232351600
FINAL SINGLE POINT ENERGY      -120.578235209220
FINAL SINGLE POINT ENERGY      -120.578237394680
FINAL SINGLE POINT ENERGY      -120.578239731340
FINAL SINGLE POINT ENERGY      -120.578242117630
FINAL SINGLE POINT ENERGY      -120.578243590880
FINAL SINGLE POINT ENERGY      -120.578245085170
FINAL SINGLE POINT ENERGY      -120.578246061630
                    ***********************HURRAY********************

CARTESIAN COORDINATES (ANGSTROEM)
---------------------------------
  O     0.864432    2.447019    0.944588
  C     1.271559    1.711404    0.083996
  O     1.909922    2.145134   -0.998118
  C     1.105774    0.193239    0.097812
  O     1.486835   -0.408783   -1.109482
  C     1.912947   -0.374523    1.289854
  C     3.386615    0.045989    1.325169
  O     3.528045    1.451417    1.340662
  C     4.216171   -0.542247    0.162185
  O     5.140039   -1.451664    0.721083
  C     4.941610    0.537944   -0.639250
  O     5.543843   -0.035618   -1.792077
  P     4.558897   -0.329431   -3.030587
  O     3.374761    0.521050   -3.072676
  O     5.564447   -0.208294   -4.264579
  O     4.279350   -1.886128   -3.013623
  C    -0.425707   -0.156641    0.332731
  O    -0.694905   -0.148787    1.697227
  C    -0.599184   -1.547130   -0.289240
  O    -0.939697   -1.740829   -1.428186
  O    -0.337017   -2.523347    0.564479
  C    -1.321775    0.858005   -0.428690
  O    -0.784801    1.164428   -1.692493
  C    -2.805844    0.456371   -0.640192
  O    -3.392189    1.469292   -1.423053
  C    -3.611893    0.299506    0.661542
  O    -3.222016   -0.917314    1.257321
  C    -5.111262    0.322978    0.342317
  O    -5.897327    0.707209    1.464481
  P    -6.236298   -0.345729    2.605219
  O    -5.137942   -1.137398    3.164780
  O    -7.373737   -1.265485    1.944928
  O    -6.977859    0.572096    3.647235
  H     1.976978    3.111661   -0.985808
  H     1.935972    0.220766   -1.701016
  H     1.421975   -0.027529    2.199492
  H     1.848183   -1.460900    1.254490
  H     3.827423   -0.376461    2.242274
  H     2.999218    1.798279    2.070720
  H     3.553474   -1.075595   -0.534762
  H     5.783907   -1.672699    0.037594
  H     4.233138    1.310337   -0.937908
  H     5.748012    0.975288   -0.048177
  H     5.614123    0.694859   -4.572229
  H     5.058423   -2.401031   -3.222636
  H    -1.584420   -0.535631    1.819527
  H    -0.452363   -3.386232    0.134338
  H    -1.317662    1.792211    0.146694
  H    -0.584744    0.324116   -2.136767
  H    -2.853577   -0.499639   -1.182271
  H    -2.681546    1.800868   -1.997508
  H    -3.398205    1.147347    1.329713
  H    -3.785256   -1.073915    2.044405
  H    -5.420772   -0.660039   -0.021784
  H    -5.299044    1.079036   -0.421643
  H    -7.277186   -2.172568    2.230989
  H    -7.562249    1.203636    3.227708

FINAL SINGLE POINT ENERGY      -120.578246547730

VIBRATIONAL FREQUENCIES
-----------------------

Scaling factor for frequencies =  1.000000000 (already applied!)

   0:         0.00 cm**-1
   1:         0.00 cm**-1
   2:         0.00 cm**-1
   3:         0.00 cm**-1
   4:         0.00 cm**-1
   5:         0.00 cm**-1
   6:         9.58 cm**-1
   7:        15.17 cm**-1
   8:        17.85 cm**-1
   9:        19.96 cm**-1
  10:        29.13 cm**-1
  11:        37.16 cm**-1
  12:        40.28 cm**-1
  13:        51.18 cm**-1
  14:        59.20 cm**-1
  15:        65.53 cm**-1
  16:        75.46 cm**-1
  17:        81.82 cm**-1
  18:        96.66 cm**-1
  19:       107.37 cm**-1
  20:       113.70 cm**-1
  21:       118.79 cm**-1
  22:       134.84 cm**-1
  23:       148.61 cm**-1
  24:       156.59 cm**-1
  25:       166.01 cm**-1
  26:       170.97 cm**-1
  27:       179.56 cm**-1
  28:       192.98 cm**-1
  29:       195.93 cm**-1
  30:       203.36 cm**-1
  31:       213.43 cm**-1
  32:       215.21 cm**-1
  33:       225.88 cm**-1
  34:       231.86 cm**-1
  35:       244.48 cm**-1
  36:       264.15 cm**-1
  37:       273.18 cm**-1
  38:       280.82 cm**-1
  39:       283.37 cm**-1
  40:       302.64 cm**-1
  41:       316.59 cm**-1
  42:       328.26 cm**-1
  43:       335.15 cm**-1
  44:       339.83 cm**-1
  45:       343.04 cm**-1
  46:       352.10 cm**-1
  47:       357.82 cm**-1
  48:       358.54 cm**-1
  49:       365.15 cm**-1
  50:       375.11 cm**-1
  51:       388.59 cm**-1
  52:       391.41 cm**-1
  53:       410.84 cm**-1
  54:       413.71 cm**-1
  55:       417.42 cm**-1
  56:       423.26 cm**-1
  57:       431.46 cm**-1
  58:       437.79 cm**-1
  59:       453.75 cm**-1
  60:       464.21 cm**-1
  61:       475.84 cm**-1
  62:       480.07 cm**-1
  63:       498.07 cm**-1
  64:       501.26 cm**-1
  65:       510.07 cm**-1
  66:       523.52 cm**-1
  67:       545.32 cm**-1
  68:       560.06 cm**-1
  69:       570.07 cm**-1
  70:       577.32 cm**-1
  71:       587.80 cm**-1
  72:       599.23 cm**-1
  73:       617.88 cm**-1
  74:       633.55 cm**-1
  75:       641.93 cm**-1
  76:       682.66 cm**-1
  77:       699.30 cm**-1
  78:       707.27 cm**-1
  79:       741.74 cm**-1
  80:       749.29 cm**-1
  81:       751.02 cm**-1
  82:       765.43 cm**-1
  83:       812.84 cm**-1
  84:       813.63 cm**-1
  85:       825.57 cm**-1
  86:       843.98 cm**-1
  87:       850.52 cm**-1
  88:       881.77 cm**-1
  89:       899.43 cm**-1
  90:       901.48 cm**-1
  91:       912.46 cm**-1
  92:       912.87 cm**-1
  93:       921.56 cm**-1
  94:       925.21 cm**-1
  95:       946.83 cm**-1
  96:       982.74 cm**-1
  97:       993.13 cm**-1
  98:      1010.95 cm**-1
  99:      1034.69 cm**-1
 100:      1044.19 cm**-1
 101:      1057.54 cm**-1
 102:      1078.98 cm**-1
 103:      1083.67 cm**-1
 104:      1085.32 cm**-1
 105:      1086.29 cm**-1
 106:      1091.06 cm**-1
 107:      1109.99 cm**-1
 108:      1110.97 cm**-1
 109:      1115.85 cm**-1
 110:      1124.03 cm**-1
 111:      1135.53 cm**-1
 112:      1143.05 cm**-1
 113:      1147.65 cm**-1
 114:      1163.75 cm**-1
 115:      1171.90 cm**-1
 116:      1195.77 cm**-1
 117:      1199.56 cm**-1
 118:      1214.95 cm**-1
 119:      1218.92 cm**-1
 120:      1234.30 cm**-1
 121:      1237.17 cm**-1
 122:      1250.31 cm**-1
 123:      1251.86 cm**-1
 124:      1254.98 cm**-1
 125:      1257.56 cm**-1
 126:      1269.90 cm**-1
 127:      1274.35 cm**-1
 128:      1275.21 cm**-1
 129:      1286.42 cm**-1
 130:      1288.57 cm**-1
 131:      1293.01 cm**-1
 132:      1302.85 cm**-1
 133:      1314.58 cm**-1
 134:      1317.65 cm**-1
 135:      1325.46 cm**-1
 136:      1333.80 cm**-1
 137:      1338.30 cm**-1
 138:      1341.42 cm**-1
 139:      1350.88 cm**-1
 140:      1361.73 cm**-1
 141:      1367.60 cm**-1
 142:      1434.85 cm**-1
 143:      1437.32 cm**-1
 144:      1445.71 cm**-1
 145:      1775.93 cm**-1
 146:      1778.15 cm**-1
 147:      2860.56 cm**-1
 148:      2876.07 cm**-1
 149:      2888.12 cm**-1
 150:      2890.55 cm**-1
 151:      2941.41 cm**-1
 152:      2955.47 cm**-1
 153:      2988.38 cm**-1
 154:      2993.73 cm**-1
 155:      2997.07 cm**-1
 156:      3006.99 cm**-1
 157:      3019.94 cm**-1
 158:      3208.10 cm**-1
 159:      3270.01 cm**-1
 160:      3353.65 cm**-1
 161:      3392.24 cm**-1
 162:      3420.66 cm**-1
 163:      3427.37 cm**-1
 164:      3459.25 cm**-1
 165:      3511.57 cm**-1
 166:      3528.42 cm**-1
 167:      3600.31 cm**-1
 168:      3604.97 cm**-1
 169:      3628.69 cm**-1
 170:      3638.45 cm**-1

IR SPECTRUM
-----------

 Mode   freq       eps      Int      T**2         TX        TY        TZ
       cm**-1   L/(mol*cm) km/mol    a.u.
----------------------------------------------------------------------------
  6:      9.58   0.000192    0.97  0.006255  (-0.062459 -0.045319  0.017312)
  7:     15.17   0.000058    0.29  0.001194  ( 0.009222  0.022236  0.024785)
  8:     17.85   0.000066    0.33  0.001152  ( 0.011016  0.014535 -0.028625)
  9:     19.96   0.000241    1.22  0.003772  ( 0.027159 -0.042698 -0.034806)
 10:     29.13   0.000854    4.32  0.009154  ( 0.091241  0.026797 -0.010538)
 11:     37.16   0.000781    3.95  0.006559  ( 0.048669 -0.064441 -0.006178)
 12:     40.28   0.000137    0.69  0.001063  (-0.019600 -0.003293  0.025852)
 13:     51.18   0.000681    3.44  0.004153  (-0.021682  0.031758 -0.051713)
 14:     59.20   0.000891    4.50  0.004695  (-0.048592  0.034063  0.034257)
 15:     65.53   0.002154   10.89  0.010260  ( 0.079114  0.052585 -0.035148)
 16:     75.46   0.000481    2.43  0.001991  (-0.011267 -0.036765  0.022632)
 17:     81.82   0.000058    0.29  0.000221  (-0.013560  0.002096 -0.005691)
 18:     96.66   0.001021    5.16  0.003295  (-0.050653  0.018254 -0.019903)
 19:    107.37   0.003743   18.92  0.010879  (-0.094631  0.043784 -0.002599)
 20:    113.70   0.000308    1.56  0.000846  ( 0.000035 -0.002117 -0.029017)
 21:    118.79   0.000575    2.91  0.001511  ( 0.035507 -0.009922  0.012310)
 22:    134.84   0.001177    5.95  0.002723  ( 0.043990  0.020574 -0.019106)
 23:    148.61   0.000025    0.12  0.000052  ( 0.001440  0.004415 -0.005476)
 24:    156.59   0.002128   10.75  0.004241  (-0.057996  0.028372 -0.008487)
 25:    166.01   0.001959    9.90  0.003682  ( 0.030574  0.015614 -0.050031)
 26:    170.97   0.001790    9.05  0.003268  ( 0.026016  0.006459 -0.050492)
 27:    179.56   0.002114   10.69  0.003675  ( 0.047938  0.031198 -0.020083)
 28:    192.98   0.001339    6.77  0.002165  (-0.045518  0.009559  0.001466)
 29:    195.93   0.003530   17.84  0.005622  (-0.074575 -0.007238  0.002934)
 30:    203.36   0.002235   11.30  0.003430  ( 0.022231  0.002964  0.054102)
 31:    213.43   0.004017   20.30  0.005873  (-0.027200 -0.071643 -0.000899)
 32:    215.21   0.003040   15.36  0.004408  (-0.051275 -0.041992 -0.003971)
 33:    225.88   0.014540   73.48  0.020087  ( 0.008336 -0.043311 -0.134691)
 34:    231.86   0.009731   49.18  0.013098  ( 0.103354 -0.045796 -0.017842)
 35:    244.48   0.005709   28.85  0.007287  ( 0.064754 -0.035607 -0.042737)
 36:    264.15   0.008656   43.75  0.010226  (-0.009932 -0.017047  0.099182)
 37:    273.18   0.012454   62.94  0.014226  (-0.088962 -0.078718 -0.010748)
 38:    280.82   0.020225  102.21  0.022475  (-0.105175 -0.000838 -0.106830)
 39:    283.37   0.010099   51.03  0.011121  ( 0.092443  0.001216  0.050737)
 40:    302.64   0.007381   37.30  0.007611  (-0.082126 -0.019014  0.022471)
 41:    316.59   0.005488   27.73  0.005410  ( 0.066046  0.000884  0.032353)
 42:    328.26   0.012496   63.15  0.011879  (-0.060526 -0.090066 -0.010205)
 43:    335.15   0.003781   19.11  0.003520  (-0.059019  0.000741 -0.006038)
 44:    339.83   0.004247   21.46  0.003900  ( 0.034642  0.002696 -0.051889)
 45:    343.04   0.002990   15.11  0.002720  ( 0.009298  0.046419  0.021875)
 46:    352.10   0.003291   16.63  0.002917  ( 0.047384 -0.007476 -0.024808)
 47:    357.82   0.010410   52.61  0.009079  ( 0.085705  0.008422 -0.040772)
 48:    358.54   0.000266    1.35  0.000232  (-0.007234  0.011989  0.005976)
 49:    365.15   0.005521   27.90  0.004718  ( 0.025344  0.009149 -0.063186)
 50:    375.11   0.007308   36.93  0.006080  ( 0.037371 -0.068345 -0.003505)
 51:    388.59   0.015374   77.70  0.012347  (-0.108828  0.001535 -0.022384)
 52:    391.41   0.006488   32.79  0.005173  ( 0.060269  0.038839  0.005653)
 53:    410.84   0.023447  118.49  0.017809  (-0.067268  0.038260 -0.108722)
 54:    413.71   0.020893  105.58  0.015759  ( 0.035588  0.027276  0.117256)
 55:    417.42   0.018029   91.11  0.013479  (-0.056675 -0.091166  0.044220)
 56:    423.26   0.008827   44.61  0.006508  (-0.047139 -0.002569 -0.065417)
 57:    431.46   0.017831   90.11  0.012897  ( 0.071819  0.087640  0.007621)
 58:    437.79   0.022213  112.26  0.015834  (-0.108180  0.043234  0.047558)
 59:    453.75   0.011524   58.24  0.007926  (-0.020519  0.086252 -0.008096)
 60:    464.21   0.012925   65.32  0.008688  (-0.090724  0.018063  0.011461)
 61:    475.84   0.020194  102.05  0.013244  (-0.113242  0.004051 -0.020089)
 62:    480.07   0.008501   42.96  0.005526  ( 0.040358 -0.025662 -0.056910)
 63:    498.07   0.004916   24.85  0.003080  (-0.042626 -0.035251  0.004551)
 64:    501.26   0.014346   72.50  0.008931  (-0.025553  0.003510 -0.090917)
 65:    510.07   0.034425  173.97  0.021062  (-0.122561 -0.041063 -0.065986)
 66:    523.52   0.013511   68.28  0.008054  (-0.077225  0.028559 -0.035704)
 67:    545.32   0.004880   24.66  0.002793  (-0.018579 -0.043256  0.024006)
 68:    560.06   0.014453   73.04  0.008053  ( 0.068606 -0.018104 -0.054941)
 69:    570.07   0.015904   80.37  0.008706  (-0.062551  0.041309 -0.055560)
 70:    577.32   0.004860   24.56  0.002627  (-0.009921 -0.046941 -0.018039)
 71:    587.80   0.021701  109.67  0.011521  (-0.096268  0.028983 -0.037595)
 72:    599.23   0.029246  147.80  0.015231  ( 0.100843 -0.067584  0.022218)
 73:    617.88   0.027814  140.56  0.014048  (-0.102158 -0.049473  0.034118)
 74:    633.55   0.027371  138.32  0.013482  ( 0.098162 -0.060490  0.013674)
 75:    641.93   0.001574    7.96  0.000765  (-0.006341 -0.002889  0.026774)
 76:    682.66   0.053021  267.95  0.024237  ( 0.149370 -0.038312 -0.021408)
 77:    699.30   0.002826   14.28  0.001261  (-0.021151 -0.010151 -0.026658)
 78:    707.27   0.025521  128.97  0.011260  (-0.079998 -0.062565 -0.030762)
 79:    741.74   0.023622  119.38  0.009938  (-0.063648 -0.014252 -0.075392)
 80:    749.29   0.004106   20.75  0.001710  ( 0.035099  0.021842  0.001059)
 81:    751.02   0.019839  100.26  0.008244  ( 0.043616 -0.063885  0.047540)
 82:    765.43   0.000751    3.80  0.000306  (-0.007989 -0.015422  0.002162)
 83:    812.84   0.065276  329.88  0.025060  ( 0.100802  0.086201 -0.086420)
 84:    813.63   0.055383  279.88  0.021242  (-0.068042 -0.069465 -0.108565)
 85:    825.57   0.006214   31.40  0.002349  ( 0.019251  0.018194 -0.040586)
 86:    843.98   0.014190   71.71  0.005247  (-0.053153 -0.048167 -0.010069)
 87:    850.52   0.022668  114.56  0.008317  (-0.048922 -0.074587 -0.018994)
 88:    881.77   0.004809   24.30  0.001702  ( 0.038030 -0.005413 -0.015040)
 89:    899.43   0.038431  194.22  0.013334  ( 0.108381  0.015439 -0.036734)
 90:    901.48   0.081654  412.64  0.028266  ( 0.087505  0.142493 -0.017451)
 91:    912.46   0.107975  545.66  0.036928  (-0.064064  0.099256  0.151565)
 92:    912.87   0.000638    3.22  0.000218  ( 0.011615  0.007778 -0.004754)
 93:    921.56   0.007112   35.94  0.002408  ( 0.014548 -0.046666 -0.004348)
 94:    925.21   0.081016  409.42  0.027326  (-0.001853 -0.051424 -0.157092)
 95:    946.83   0.010149   51.29  0.003345  ( 0.009559 -0.053699 -0.019235)
 96:    982.74   0.000932    4.71  0.000296  ( 0.013091  0.002970 -0.010762)
 97:    993.13   0.015659   79.13  0.004920  ( 0.037347 -0.027496  0.052627)
 98:   1010.95   0.003801   19.21  0.001173  ( 0.002029  0.033204 -0.008173)
 99:   1034.69   0.006856   34.65  0.002068  (-0.000014  0.036014 -0.027761)
100:   1044.19   0.012836   64.87  0.003836  (-0.030263  0.003720  0.053912)
101:   1057.54   0.007331   37.05  0.002163  ( 0.037829 -0.024278  0.011953)
102:   1078.98   0.003480   17.58  0.001006  (-0.022779 -0.020266 -0.008762)
103:   1083.67   0.024740  125.02  0.007124  (-0.068011  0.013679  0.048080)
104:   1085.32   0.015320   77.42  0.004405  ( 0.006442 -0.003017 -0.065988)
105:   1086.29   0.006827   34.50  0.001961  ( 0.022071  0.034666 -0.016505)
106:   1091.06   0.006262   31.65  0.001791  (-0.000320 -0.014141  0.039889)
107:   1109.99   0.011798   59.62  0.003317  ( 0.032072 -0.035318  0.032266)
108:   1110.97   0.025848  130.63  0.007261  ( 0.003807  0.058678 -0.061668)
109:   1115.85   0.018527   93.63  0.005181  ( 0.031854 -0.059453 -0.025140)
110:   1124.03   0.054097  273.38  0.015019  (-0.061553 -0.027089  0.102452)
111:   1135.53   0.006982   35.28  0.001919  ( 0.022362 -0.023362  0.029545)
112:   1143.05   0.026254  132.68  0.007168  ( 0.006739 -0.026414  0.080153)
113:   1147.65   0.019322   97.65  0.005254  ( 0.003158  0.070044 -0.018383)
114:   1163.75   0.004496   22.72  0.001206  ( 0.019768 -0.000382 -0.028545)
115:   1171.90   0.006398   32.33  0.001704  (-0.031925  0.022041  0.014095)
116:   1195.77   0.007184   36.31  0.001875  (-0.007158 -0.042529  0.003875)
117:   1199.56   0.012368   62.50  0.003218  ( 0.042731 -0.037304 -0.000127)
118:   1214.95   0.008941   45.18  0.002296  ( 0.044182  0.008398 -0.016550)
119:   1218.92   0.028589  144.48  0.007319  ( 0.029649  0.079248  0.012646)
120:   1234.30   0.015933   80.52  0.004028  (-0.036658  0.036934 -0.036335)
121:   1237.17   0.013450   67.97  0.003393  (-0.014006  0.038774  0.041145)
122:   1250.31   0.015997   80.84  0.003993  ( 0.049623  0.038704  0.005686)
123:   1251.86   0.016550   83.64  0.004126  (-0.016380 -0.057255 -0.024066)
124:   1254.98   0.108560  548.62  0.026995  (-0.109489  0.092993 -0.079744)
125:   1257.56   0.029457  148.86  0.007310  ( 0.073090  0.021515 -0.038790)
126:   1269.90   0.045700  230.95  0.011230  (-0.087366  0.023524  0.055173)
127:   1274.35   0.015042   76.02  0.003684  (-0.015125  0.035523 -0.046828)
128:   1275.21   0.022433  113.37  0.005490  ( 0.047550 -0.056390  0.006998)
129:   1286.42   0.011164   56.42  0.002708  ( 0.009965  0.040914  0.030578)
130:   1288.57   0.038657  195.35  0.009362  ( 0.075269 -0.024409  0.055683)
131:   1293.01   0.011365   57.44  0.002743  ( 0.025734 -0.044663  0.009270)
132:   1302.85   0.013763   69.55  0.003297  ( 0.022546 -0.030400  0.043175)
133:   1314.58   0.023653  119.53  0.005615  (-0.058857  0.045367 -0.009626)
134:   1317.65   0.002689   13.59  0.000637  (-0.000419  0.018883 -0.016735)
135:   1325.46   0.004070   20.57  0.000958  ( 0.012491  0.016448  0.023059)
136:   1333.80   0.000910    4.60  0.000213  ( 0.008045 -0.011799 -0.003001)
137:   1338.30   0.001255    6.34  0.000293  (-0.015101 -0.005491 -0.005869)
138:   1341.42   0.007042   35.59  0.001638  ( 0.030361 -0.015633  0.021725)
139:   1350.88   0.017189   86.87  0.003971  ( 0.001152 -0.020829  0.059461)
140:   1361.73   0.001378    6.96  0.000316  ( 0.013298  0.010210  0.005885)
141:   1367.60   0.005427   27.43  0.001238  (-0.030435 -0.012273  0.012708)
142:   1434.85   0.006765   34.19  0.001471  (-0.037329 -0.008050 -0.003607)
143:   1437.32   0.006063   30.64  0.001316  ( 0.007094  0.035531 -0.001904)
144:   1445.71   0.005180   26.18  0.001118  ( 0.029969  0.014689 -0.002062)
145:   1775.93   0.116096  586.70  0.020400  (-0.010490 -0.035713 -0.137894)
146:   1778.15   0.036461  184.26  0.006399  (-0.061491  0.050630  0.007367)
147:   2860.56   0.015934   80.52  0.001738  ( 0.017882 -0.026779  0.026483)
148:   2876.07   0.002140   10.81  0.000232  (-0.002743 -0.014988  0.000058)
149:   2888.12   0.005574   28.17  0.000602  ( 0.010172  0.021618  0.005612)
150:   2890.55   0.008899   44.97  0.000961  (-0.013580 -0.027809 -0.001730)
151:   2941.41   0.005455   27.57  0.000579  ( 0.006237 -0.023092 -0.002579)
152:   2955.47   0.011630   58.77  0.001228  (-0.013477 -0.028791 -0.014745)
153:   2988.38   0.005345   27.01  0.000558  (-0.017005 -0.016214 -0.002475)
154:   2993.73   0.000285    1.44  0.000030  ( 0.001922  0.005038 -0.000792)
155:   2997.07   0.000861    4.35  0.000090  (-0.008846  0.003380 -0.000052)
156:   3006.99   0.002011   10.16  0.000209  ( 0.007092 -0.012561 -0.000806)
157:   3019.94   0.001457    7.36  0.000151  (-0.001562 -0.012163  0.000470)
158:   3208.10   0.209793  1060.21  0.020407  (-0.119917 -0.027913  0.072443)
159:   3270.01   0.029449  148.83  0.002810  ( 0.049133 -0.003012  0.019681)
160:   3353.65   0.044343  224.09  0.004126  (-0.046827 -0.013974  0.041692)
161:   3392.24   0.021020  106.23  0.001934  ( 0.039385 -0.007121 -0.018215)
162:   3420.66   0.020154  101.85  0.001839  (-0.011293  0.038542  0.015020)
163:   3427.37   0.007860   39.72  0.000716  ( 0.004547  0.023226  0.012471)
164:   3459.25   0.018700   94.50  0.001687  ( 0.006750 -0.040498  0.001157)
165:   3511.57   0.001338    6.76  0.000119  (-0.008448 -0.000967  0.006825)
166:   3528.42   0.004763   24.07  0.000421  (-0.015913 -0.007352  0.010674)
167:   3600.31   0.008136   41.11  0.000705  ( 0.011601 -0.018684  0.014882)
168:   3604.97   0.010778   54.47  0.000933  ( 0.024317 -0.013674 -0.012438)
169:   3628.69   0.018101   91.48  0.001557  ( 0.011847  0.034922 -0.014027)
170:   3638.45   0.018862   95.32  0.001618  ( 0.004235  0.034732 -0.019837)

--------------------------
THERMOCHEMISTRY AT 298.15K
--------------------------

Temperature         ... 298.15 K
Pressure            ... 1.00 atm
Total Mass          ... 534.25 AMU

Throughout the following assumptions are being made:
  (1) The electronic state is orbitally nondegenerate
  (2) There are no thermally accessible electronically excited states
  (3) Hindered rotations indicated by low frequency modes are not
      treated as such but are treated as vibrations and this may
      cause some error
  (4) All equations used are the standard statistical mechanics
      equations for an ideal gas
  (5) All vibrations are strictly harmonic

freq.       9.58  E(vib)   ...       0.58
freq.      15.17  E(vib)   ...       0.57
freq.      17.85  E(vib)   ...       0.57
freq.      19.96  E(vib)   ...       0.56
freq.      29.13  E(vib)   ...       0.55
freq.      37.16  E(vib)   ...       0.54
freq.      40.28  E(vib)   ...       0.54
freq.      51.18  E(vib)   ...       0.52
freq.      59.20  E(vib)   ...       0.51
freq.      65.53  E(vib)   ...       0.50
freq.      75.46  E(vib)   ...       0.49
freq.      81.82  E(vib)   ...       0.48
freq.      96.66  E(vib)   ...       0.47
freq.     107.37  E(vib)   ...       0.45
freq.     113.70  E(vib)   ...       0.44
freq.     118.79  E(vib)   ...       0.44
freq.     134.84  E(vib)   ...       0.42
freq.     148.61  E(vib)   ...       0.41
freq.     156.59  E(vib)   ...       0.40
freq.     166.01  E(vib)   ...       0.39
freq.     170.97  E(vib)   ...       0.38
freq.     179.56  E(vib)   ...       0.37
freq.     192.98  E(vib)   ...       0.36
freq.     195.93  E(vib)   ...       0.36
freq.     203.36  E(vib)   ...       0.35
freq.     213.43  E(vib)   ...       0.34
freq.     215.21  E(vib)   ...       0.34
freq.     225.88  E(vib)   ...       0.33
freq.     231.86  E(vib)   ...       0.32
freq.     244.48  E(vib)   ...       0.31
freq.     264.15  E(vib)   ...       0.29
freq.     273.18  E(vib)   ...       0.29
freq.     280.82  E(vib)   ...       0.28
freq.     283.37  E(vib)   ...       0.28
freq.     302.64  E(vib)   ...       0.26
freq.     316.59  E(vib)   ...       0.25
freq.     328.26  E(vib)   ...       0.24
freq.     335.15  E(vib)   ...       0.24
freq.     339.83  E(vib)   ...       0.23
freq.     343.04  E(vib)   ...       0.23
freq.     352.10  E(vib)   ...       0.23
freq.     357.82  E(vib)   ...       0.22
freq.     358.54  E(vib)   ...       0.22
freq.     365.15  E(vib)   ...       0.22
freq.     375.11  E(vib)   ...       0.21
freq.     388.59  E(vib)   ...       0.20
freq.     391.41  E(vib)   ...       0.20
freq.     410.84  E(vib)   ...       0.19
freq.     413.71  E(vib)   ...       0.19
freq.     417.42  E(vib)   ...       0.18
freq.     423.26  E(vib)   ...       0.18
freq.     431.46  E(vib)   ...       0.18
freq.     437.79  E(vib)   ...       0.17
freq.     453.75  E(vib)   ...       0.16
freq.     464.21  E(vib)   ...       0.16
freq.     475.84  E(vib)   ...       0.15
freq.     480.07  E(vib)   ...       0.15
freq.     498.07  E(vib)   ...       0.14
freq.     501.26  E(vib)   ...       0.14
freq.     510.07  E(vib)   ...       0.14
freq.     523.52  E(vib)   ...       0.13
freq.     545.32  E(vib)   ...       0.12
freq.     560.06  E(vib)   ...       0.12
freq.     570.07  E(vib)   ...       0.11
freq.     577.32  E(vib)   ...       0.11
freq.     587.80  E(vib)   ...       0.10
freq.     599.23  E(vib)   ...       0.10
freq.     617.88  E(vib)   ...       0.09
freq.     633.55  E(vib)   ...       0.09
freq.     641.93  E(vib)   ...       0.09
freq.     682.66  E(vib)   ...       0.08
freq.     699.30  E(vib)   ...       0.07
freq.     707.27  E(vib)   ...       0.07
freq.     741.74  E(vib)   ...       0.06
freq.     749.29  E(vib)   ...       0.06
freq.     751.02  E(vib)   ...       0.06
freq.     765.43  E(vib)   ...       0.06
freq.     812.84  E(vib)   ...       0.05
freq.     813.63  E(vib)   ...       0.05
freq.     825.57  E(vib)   ...       0.04
freq.     843.98  E(vib)   ...       0.04
freq.     850.52  E(vib)   ...       0.04
freq.     881.77  E(vib)   ...       0.04
freq.     899.43  E(vib)   ...       0.03
freq.     901.48  E(vib)   ...       0.03
freq.     912.46  E(vib)   ...       0.03
freq.     912.87  E(vib)   ...       0.03
freq.     921.56  E(vib)   ...       0.03
freq.     925.21  E(vib)   ...       0.03
freq.     946.83  E(vib)   ...       0.03
freq.     982.74  E(vib)   ...       0.02
freq.     993.13  E(vib)   ...       0.02
freq.    1010.95  E(vib)   ...       0.02
freq.    1034.69  E(vib)   ...       0.02
freq.    1044.19  E(vib)   ...       0.02
freq.    1057.54  E(vib)   ...       0.02
freq.    1078.98  E(vib)   ...       0.02
freq.    1083.67  E(vib)   ...       0.02
freq.    1085.32  E(vib)   ...       0.02
freq.    1086.29  E(vib)   ...       0.02
freq.    1091.06  E(vib)   ...       0.02
freq.    1109.99  E(vib)   ...       0.02
freq.    1110.97  E(vib)   ...       0.01
freq.    1115.85  E(vib)   ...       0.01
freq.    1124.03  E(vib)   ...       0.01
freq.    1135.53  E(vib)   ...       0.01
freq.    1143.05  E(vib)   ...       0.01
freq.    1147.65  E(vib)   ...       0.01
freq.    1163.75  E(vib)   ...       0.01
freq.    1171.90  E(vib)   ...       0.01
freq.    1195.77  E(vib)   ...       0.01
freq.    1199.56  E(vib)   ...       0.01
freq.    1214.95  E(vib)   ...       0.01
freq.    1218.92  E(vib)   ...       0.01
freq.    1234.30  E(vib)   ...       0.01
freq.    1237.17  E(vib)   ...       0.01
freq.    1250.31  E(vib)   ...       0.01
freq.    1251.86  E(vib)   ...       0.01
freq.    1254.98  E(vib)   ...       0.01
freq.    1257.56  E(vib)   ...       0.01
freq.    1269.90  E(vib)   ...       0.01
freq.    1274.35  E(vib)   ...       0.01
freq.    1275.21  E(vib)   ...       0.01
freq.    1286.42  E(vib)   ...       0.01
freq.    1288.57  E(vib)   ...       0.01
freq.    1293.01  E(vib)   ...       0.01
freq.    1302.85  E(vib)   ...       0.01
freq.    1314.58  E(vib)   ...       0.01
freq.    1317.65  E(vib)   ...       0.01
freq.    1325.46  E(vib)   ...       0.01
freq.    1333.80  E(vib)   ...       0.01
freq.    1338.30  E(vib)   ...       0.01
freq.    1341.42  E(vib)   ...       0.01
freq.    1350.88  E(vib)   ...       0.01
freq.    1361.73  E(vib)   ...       0.01
freq.    1367.60  E(vib)   ...       0.01
freq.    1434.85  E(vib)   ...       0.00
freq.    1437.32  E(vib)   ...       0.00
freq.    1445.71  E(vib)   ...       0.00
freq.    1775.93  E(vib)   ...       0.00
freq.    1778.15  E(vib)   ...       0.00
freq.    2860.56  E(vib)   ...       0.00
freq.    2876.07  E(vib)   ...       0.00
freq.    2888.12  E(vib)   ...       0.00

Rotational constants in cm-1:     0.009643     0.001605     0.001562

                             ****ORCA TERMINATED NORMALLY****
TOTAL RUN TIME: 0 days 0 hours 15 minutes 18 seconds 470 msec
