                         Program Version 5.0.3 -  RELEASE  -
|  1> ! XTB2 opt numfreq
|  2> * xyz 0 1
|  3> O 3.134196 -.178322 2.454408
|  4> C 3.121906 -.819875 1.437607
|  5> C 2.566117 -.312162 .124519
|  6> O 2.853319 -1.201686 -.922503
|  7> C 3.120896 1.096306 -.135787
|  8> O 4.487880 1.136953 .239087
|  9> P 4.843949 2.025100 1.511194
| 10> O 3.759315 2.832584 2.069270
| 11> O 6.067404 2.785997 .840853
| 12> O 5.552918 1.066903 2.581999
| 13> C .993501 -.329068 .342043
| 14> O .678089 -1.558444 .919260
| 15> O .611498 .696598 1.188372
| 16> C .278991 -.076278 -1.000270
| 17> O .554832 1.224899 -1.457816
| 18> C -1.260272 -.221782 -.921024
| 19> O -1.770933 .208772 -2.172004
| 20> C -1.733412 -1.659261 -.602093
| 21> O -.854627 -2.627748 -1.132392
| 22> C -3.154134 -1.953418 -1.134652
| 23> O -3.120016 -2.105553 -2.527541
| 24> C -4.169562 -.890606 -.702293
| 25> O -4.094465 -.734590 .706671
| 26> P -4.654736 .635492 1.295465
| 27> O -5.983378 1.050827 .844134
| 28> O -4.498683 .394477 2.855343
| 29> O -3.493629 1.675066 .969893
| 30> H 3.501013 -1.855297 1.392835
| 31> H 3.786435 -1.110113 -1.152806
| 32> H 3.047911 1.328119 -1.201132
| 33> H 2.568224 1.837763 .448488
| 34> H 6.787289 3.259869 2.019652
| 35> H 4.897361 .698160 3.178443
| 36> H .452161 -2.203590 .230329
| 37> H 1.015573 .572017 2.059484
| 38> H .675860 -.765184 -1.752175
| 39> H .377857 1.828427 -.721721
| 40> H -1.626911 .444861 -.127419
| 41> H -1.164253 .896988 -2.488943
| 42> H -1.733186 -1.777319 .484046
| 43> H -1.173969 -2.832105 -2.026578
| 44> H -3.459294 -2.927195 -.735096
| 45> H -2.819215 -1.257046 -2.893669
| 46> H -3.949813 .055000 -1.204651
| 47> H -5.180239 -1.202622 -.981954
| 48> H -5.292430 -.001565 3.210575
| 49> H -3.841514 2.565397 .999957
| 50> *
| 51>
| 52>                          ****END OF INPUT****
FINAL SINGLE POINT ENERGY       -99.789872119290
FINAL SINGLE POINT ENERGY       -99.819300746900
FINAL SINGLE POINT ENERGY       -99.847089821190
FINAL SINGLE POINT ENERGY       -99.865408353680
FINAL SINGLE POINT ENERGY       -99.865522340740
FINAL SINGLE POINT ENERGY       -99.866595906170
FINAL SINGLE POINT ENERGY       -99.866222986580
FINAL SINGLE POINT ENERGY       -99.866794194970
FINAL SINGLE POINT ENERGY       -99.866824154900
FINAL SINGLE POINT ENERGY       -99.866889544670
FINAL SINGLE POINT ENERGY       -99.866936219590
FINAL SINGLE POINT ENERGY       -99.866971010770
FINAL SINGLE POINT ENERGY       -99.867008306880
FINAL SINGLE POINT ENERGY       -99.867039617850
FINAL SINGLE POINT ENERGY       -99.867060364200
FINAL SINGLE POINT ENERGY       -99.867076730620
FINAL SINGLE POINT ENERGY       -99.867082156920
FINAL SINGLE POINT ENERGY       -99.867085347850
FINAL SINGLE POINT ENERGY       -99.867086433200
                    ***********************HURRAY********************

CARTESIAN COORDINATES (ANGSTROEM)
---------------------------------
  O     3.117897   -0.230082    2.470996
  C     3.128269   -0.854615    1.443298
  C     2.577412   -0.332680    0.134472
  O     2.872650   -1.205512   -0.923946
  C     3.128046    1.081371   -0.103350
  O     4.491950    1.129946    0.275265
  P     4.852914    1.999614    1.575859
  O     3.758230    2.821609    2.090497
  O     6.116927    2.776655    1.019336
  O     5.530198    1.003114    2.612969
  C     1.004336   -0.357337    0.344224
  O     0.692855   -1.596042    0.903961
  O     0.615629    0.655946    1.202772
  C     0.293901   -0.089328   -0.997034
  O     0.576323    1.215317   -1.441850
  C    -1.246263   -0.225801   -0.922025
  O    -1.751853    0.211694   -2.172795
  C    -1.730556   -1.660093   -0.608653
  O    -0.861788   -2.633324   -1.146959
  C    -3.155130   -1.938131   -1.139233
  O    -3.124398   -2.085891   -2.532755
  C    -4.158580   -0.865887   -0.702393
  O    -4.077406   -0.712013    0.706405
  P    -4.623372    0.662336    1.298935
  O    -5.949371    1.090900    0.852069
  O    -4.463992    0.417634    2.857588
  O    -3.454414    1.693010    0.970422
  H     3.527460   -1.881658    1.385865
  H     3.810429   -1.119967   -1.136839
  H     3.056998    1.325340   -1.166127
  H     2.569098    1.811391    0.488788
  H     6.281021    3.556936    1.545816
  H     4.863814    0.614739    3.184401
  H     0.449076   -2.227828    0.208795
  H     1.020034    0.521014    2.072369
  H     0.689499   -0.772861   -1.754345
  H     0.394575    1.811758   -0.701208
  H    -1.609835    0.441004   -0.127089
  H    -1.141746    0.898631   -2.485445
  H    -1.728291   -1.783857    0.476883
  H    -1.186368   -2.830688   -2.040890
  H    -3.469896   -2.909882   -0.742327
  H    -2.816158   -1.239116   -2.896548
  H    -3.931428    0.078224   -1.204405
  H    -5.173167   -1.167588   -0.979249
  H    -5.262006    0.032520    3.215310
  H    -3.797698    2.585221    0.997574

FINAL SINGLE POINT ENERGY       -99.867087120580

VIBRATIONAL FREQUENCIES
-----------------------

Scaling factor for frequencies =  1.000000000 (already applied!)

   0:         0.00 cm**-1
   1:         0.00 cm**-1
   2:         0.00 cm**-1
   3:         0.00 cm**-1
   4:         0.00 cm**-1
   5:         0.00 cm**-1
   6:         9.62 cm**-1
   7:        17.93 cm**-1
   8:        23.71 cm**-1
   9:        30.44 cm**-1
  10:        37.45 cm**-1
  11:        47.01 cm**-1
  12:        58.75 cm**-1
  13:        64.78 cm**-1
  14:        79.22 cm**-1
  15:        81.29 cm**-1
  16:        90.60 cm**-1
  17:        98.31 cm**-1
  18:       124.99 cm**-1
  19:       134.63 cm**-1
  20:       143.07 cm**-1
  21:       150.95 cm**-1
  22:       175.21 cm**-1
  23:       183.13 cm**-1
  24:       197.04 cm**-1
  25:       202.87 cm**-1
  26:       206.96 cm**-1
  27:       212.74 cm**-1
  28:       221.62 cm**-1
  29:       233.57 cm**-1
  30:       251.68 cm**-1
  31:       260.59 cm**-1
  32:       274.43 cm**-1
  33:       275.75 cm**-1
  34:       296.03 cm**-1
  35:       305.13 cm**-1
  36:       327.79 cm**-1
  37:       329.68 cm**-1
  38:       335.45 cm**-1
  39:       338.32 cm**-1
  40:       343.93 cm**-1
  41:       354.30 cm**-1
  42:       364.09 cm**-1
  43:       382.39 cm**-1
  44:       398.11 cm**-1
  45:       402.87 cm**-1
  46:       405.68 cm**-1
  47:       413.06 cm**-1
  48:       425.48 cm**-1
  49:       427.28 cm**-1
  50:       434.23 cm**-1
  51:       443.02 cm**-1
  52:       450.33 cm**-1
  53:       453.92 cm**-1
  54:       470.58 cm**-1
  55:       493.48 cm**-1
  56:       498.05 cm**-1
  57:       518.32 cm**-1
  58:       522.97 cm**-1
  59:       535.53 cm**-1
  60:       559.25 cm**-1
  61:       578.16 cm**-1
  62:       594.32 cm**-1
  63:       622.73 cm**-1
  64:       639.03 cm**-1
  65:       752.19 cm**-1
  66:       761.49 cm**-1
  67:       791.41 cm**-1
  68:       807.68 cm**-1
  69:       822.27 cm**-1
  70:       834.01 cm**-1
  71:       835.43 cm**-1
  72:       853.74 cm**-1
  73:       857.74 cm**-1
  74:       859.42 cm**-1
  75:       894.04 cm**-1
  76:       899.72 cm**-1
  77:       914.56 cm**-1
  78:       920.18 cm**-1
  79:       934.90 cm**-1
  80:       950.68 cm**-1
  81:       960.25 cm**-1
  82:       989.40 cm**-1
  83:      1008.44 cm**-1
  84:      1038.65 cm**-1
  85:      1063.46 cm**-1
  86:      1069.73 cm**-1
  87:      1080.01 cm**-1
  88:      1087.00 cm**-1
  89:      1095.28 cm**-1
  90:      1101.95 cm**-1
  91:      1112.96 cm**-1
  92:      1114.38 cm**-1
  93:      1129.23 cm**-1
  94:      1138.64 cm**-1
  95:      1160.96 cm**-1
  96:      1164.60 cm**-1
  97:      1176.51 cm**-1
  98:      1197.64 cm**-1
  99:      1203.70 cm**-1
 100:      1223.13 cm**-1
 101:      1237.43 cm**-1
 102:      1243.18 cm**-1
 103:      1257.77 cm**-1
 104:      1264.50 cm**-1
 105:      1267.80 cm**-1
 106:      1276.07 cm**-1
 107:      1283.01 cm**-1
 108:      1298.35 cm**-1
 109:      1312.84 cm**-1
 110:      1317.57 cm**-1
 111:      1325.77 cm**-1
 112:      1330.27 cm**-1
 113:      1333.58 cm**-1
 114:      1338.44 cm**-1
 115:      1343.55 cm**-1
 116:      1343.81 cm**-1
 117:      1354.58 cm**-1
 118:      1437.22 cm**-1
 119:      1474.43 cm**-1
 120:      1766.16 cm**-1
 121:      2818.81 cm**-1
 122:      2903.55 cm**-1
 123:      2937.36 cm**-1
 124:      2947.75 cm**-1
 125:      2950.43 cm**-1
 126:      2958.29 cm**-1
 127:      2968.96 cm**-1
 128:      2975.13 cm**-1
 129:      2980.77 cm**-1
 130:      3397.69 cm**-1
 131:      3405.34 cm**-1
 132:      3410.45 cm**-1
 133:      3417.61 cm**-1
 134:      3462.07 cm**-1
 135:      3476.46 cm**-1
 136:      3517.12 cm**-1
 137:      3549.79 cm**-1
 138:      3619.36 cm**-1
 139:      3631.04 cm**-1
 140:      3631.61 cm**-1

IR SPECTRUM
-----------

 Mode   freq       eps      Int      T**2         TX        TY        TZ
       cm**-1   L/(mol*cm) km/mol    a.u.
----------------------------------------------------------------------------
  6:      9.62   0.000147    0.74  0.004768  ( 0.034161 -0.021054  0.056197)
  7:     17.93   0.000155    0.78  0.002690  ( 0.001871  0.010968  0.050661)
  8:     23.71   0.000373    1.88  0.004907  (-0.063644  0.001802 -0.029216)
  9:     30.44   0.000198    1.00  0.002027  (-0.041653 -0.006037  0.015989)
 10:     37.45   0.000086    0.43  0.000717  (-0.023436  0.001436 -0.012878)
 11:     47.01   0.000876    4.43  0.005817  ( 0.044399 -0.059703 -0.016771)
 12:     58.75   0.000275    1.39  0.001460  (-0.013269  0.034732 -0.008814)
 13:     64.78   0.000215    1.09  0.001035  ( 0.013963 -0.003735  0.028739)
 14:     79.22   0.013833   69.91  0.054494  (-0.192977  0.080539 -0.103766)
 15:     81.29   0.013957   70.53  0.053577  ( 0.102048 -0.164670  0.126678)
 16:     90.60   0.000055    0.28  0.000191  ( 0.005716  0.008183 -0.009547)
 17:     98.31   0.000483    2.44  0.001532  ( 0.017751  0.015483  0.031264)
 18:    124.99   0.000360    1.82  0.000898  ( 0.006110 -0.028855  0.005297)
 19:    134.63   0.001206    6.10  0.002796  (-0.032021  0.012858 -0.040064)
 20:    143.07   0.001843    9.31  0.004020  (-0.051147 -0.035454  0.012132)
 21:    150.95   0.006851   34.62  0.014164  ( 0.108728  0.047812  0.007471)
 22:    175.21   0.003897   19.69  0.006940  (-0.063737 -0.050310  0.018622)
 23:    183.13   0.004631   23.40  0.007891  (-0.002868  0.085904  0.022434)
 24:    197.04   0.001128    5.70  0.001787  (-0.013777 -0.034106 -0.020837)
 25:    202.87   0.000261    1.32  0.000402  (-0.008586 -0.015993 -0.008504)
 26:    206.96   0.001621    8.19  0.002445  (-0.040834  0.024299 -0.013668)
 27:    212.74   0.019128   96.66  0.028058  (-0.102498  0.132111 -0.009918)
 28:    221.62   0.002752   13.91  0.003875  ( 0.054928  0.025056 -0.015164)
 29:    233.57   0.013884   70.16  0.018550  ( 0.031831  0.065015  0.115369)
 30:    251.68   0.001951    9.86  0.002419  ( 0.007582 -0.034677  0.034047)
 31:    260.59   0.000850    4.29  0.001017  ( 0.031264 -0.004130  0.004794)
 32:    274.43   0.001589    8.03  0.001807  (-0.026259 -0.032671  0.007079)
 33:    275.75   0.004320   21.83  0.004889  ( 0.035682 -0.048302 -0.035812)
 34:    296.03   0.005350   27.04  0.005640  ( 0.016903  0.036707  0.063296)
 35:    305.13   0.004728   23.89  0.004835  ( 0.015779 -0.067120 -0.009022)
 36:    327.79   0.002831   14.31  0.002695  (-0.018662  0.035156  0.033327)
 37:    329.68   0.000746    3.77  0.000706  (-0.024627  0.000091 -0.009991)
 38:    335.45   0.014947   75.54  0.013905  (-0.033518  0.091893 -0.065857)
 39:    338.32   0.001649    8.34  0.001521  (-0.003267 -0.031049  0.023381)
 40:    343.93   0.010962   55.40  0.009946  (-0.008805  0.009312 -0.098902)
 41:    354.30   0.004303   21.74  0.003790  ( 0.003741 -0.057111 -0.022677)
 42:    364.09   0.014476   73.16  0.012408  (-0.075819 -0.081134  0.008741)
 43:    382.39   0.009307   47.04  0.007596  (-0.022970 -0.042407  0.072592)
 44:    398.11   0.005689   28.75  0.004459  ( 0.049728  0.044550  0.001195)
 45:    402.87   0.021957  110.96  0.017008  ( 0.110723  0.035528 -0.059045)
 46:    405.68   0.018526   93.62  0.014250  ( 0.057210  0.029111 -0.100648)
 47:    413.06   0.002580   13.04  0.001949  (-0.007323 -0.035540  0.025143)
 48:    425.48   0.002014   10.18  0.001477  (-0.017948 -0.010951 -0.032177)
 49:    427.28   0.052299  264.30  0.038196  ( 0.031797  0.192834  0.000194)
 50:    434.23   0.015945   80.58  0.011459  ( 0.066115  0.065381  0.053039)
 51:    443.02   0.051264  259.07  0.036110  (-0.079524 -0.087238 -0.148914)
 52:    450.33   0.017205   86.95  0.011923  ( 0.080523 -0.058285 -0.045183)
 53:    453.92   0.001772    8.95  0.001218  ( 0.008665  0.021673  0.025945)
 54:    470.58   0.009668   48.86  0.006412  (-0.046352  0.051163 -0.040564)
 55:    493.48   0.017456   88.22  0.011039  ( 0.067809  0.057776 -0.055701)
 56:    498.05   0.015784   79.77  0.009890  ( 0.087125  0.007662  0.047335)
 57:    518.32   0.002097   10.60  0.001262  ( 0.024566  0.021166  0.014519)
 58:    522.97   0.009051   45.74  0.005401  (-0.061331  0.039219  0.010048)
 59:    535.53   0.011496   58.10  0.006699  ( 0.080949 -0.006116 -0.010428)
 60:    559.25   0.038598  195.06  0.021538  ( 0.141127 -0.034551  0.020669)
 61:    578.16   0.016435   83.05  0.008871  (-0.088537  0.004684 -0.031780)
 62:    594.32   0.073354  370.70  0.038517  ( 0.195085  0.020323  0.006736)
 63:    622.73   0.001808    9.14  0.000906  ( 0.006033 -0.029297 -0.003334)
 64:    639.03   0.007018   35.47  0.003427  (-0.011084 -0.042010 -0.039239)
 65:    752.19   0.025830  130.53  0.010716  (-0.044603 -0.077486 -0.052179)
 66:    761.49   0.004263   21.54  0.001747  ( 0.008475  0.005531  0.040553)
 67:    791.41   0.004455   22.51  0.001757  (-0.040599  0.010349  0.001145)
 68:    807.68   0.007311   36.95  0.002825  ( 0.043258  0.027206  0.014613)
 69:    822.27   0.036049  182.18  0.013681  ( 0.089350  0.014701  0.074037)
 70:    834.01   0.005278   26.67  0.001975  ( 0.018756 -0.033425 -0.022490)
 71:    835.43   0.041272  208.57  0.015417  ( 0.011309 -0.120005 -0.029796)
 72:    853.74   0.008039   40.63  0.002938  (-0.033609  0.031589 -0.028477)
 73:    857.74   0.064518  326.05  0.023473  ( 0.065846  0.130730 -0.045241)
 74:    859.42   0.038029  192.18  0.013809  ( 0.012796  0.065716 -0.096572)
 75:    894.04   0.061631  311.46  0.021512  (-0.015411  0.043429  0.139243)
 76:    899.72   0.063278  319.78  0.021948  ( 0.026781  0.010738 -0.145311)
 77:    914.56   0.003429   17.33  0.001170  (-0.032839  0.009488 -0.001321)
 78:    920.18   0.060133  303.89  0.020393  (-0.128790 -0.056611 -0.024521)
 79:    934.90   0.054576  275.80  0.018217  ( 0.124026  0.014380  0.051262)
 80:    950.68   0.006496   32.83  0.002132  (-0.042020 -0.002393  0.019002)
 81:    960.25   0.002727   13.78  0.000886  (-0.024804  0.016093  0.003455)
 82:    989.40   0.007629   38.55  0.002406  (-0.034363  0.005596 -0.034555)
 83:   1008.44   0.004909   24.81  0.001519  ( 0.011797  0.035087  0.012194)
 84:   1038.65   0.003806   19.24  0.001144  ( 0.029150 -0.005040 -0.016387)
 85:   1063.46   0.013427   67.85  0.003940  ( 0.053986 -0.031578  0.005329)
 86:   1069.73   0.053756  271.66  0.015682  (-0.101513 -0.063253 -0.037096)
 87:   1080.01   0.011220   56.70  0.003242  ( 0.008921  0.004675 -0.056040)
 88:   1087.00   0.016763   84.71  0.004812  ( 0.019590  0.022069 -0.062782)
 89:   1095.28   0.006969   35.22  0.001986  (-0.000174 -0.038528 -0.022389)
 90:   1101.95   0.021012  106.18  0.005950  ( 0.003561  0.031719  0.070225)
 91:   1112.96   0.014841   75.00  0.004161  (-0.002987  0.001592 -0.064419)
 92:   1114.38   0.043152  218.07  0.012084  ( 0.011262 -0.105848  0.027449)
 93:   1129.23   0.027832  140.65  0.007692  (-0.022399  0.074187  0.041063)
 94:   1138.64   0.003076   15.55  0.000843  (-0.011819 -0.005480 -0.025948)
 95:   1160.96   0.017874   90.33  0.004804  ( 0.057414  0.013451 -0.036429)
 96:   1164.60   0.007966   40.26  0.002135  (-0.024680  0.005435  0.038677)
 97:   1176.51   0.006845   34.59  0.001816  (-0.003712  0.042173 -0.004825)
 98:   1197.64   0.017413   88.00  0.004537  ( 0.043431 -0.004508  0.051289)
 99:   1203.70   0.003462   17.50  0.000898  (-0.009177 -0.016346 -0.023370)
100:   1223.13   0.012964   65.52  0.003308  (-0.053164  0.019254 -0.010512)
101:   1237.43   0.016638   84.08  0.004196  ( 0.028587  0.000045 -0.058126)
102:   1243.18   0.021000  106.13  0.005271  (-0.056547  0.035161 -0.028941)
103:   1257.77   0.015042   76.02  0.003732  (-0.042681  0.033798  0.027713)
104:   1264.50   0.049529  250.30  0.012223  (-0.098275  0.050372  0.005282)
105:   1267.80   0.073439  371.13  0.018077  ( 0.122791 -0.034197  0.042774)
106:   1276.07   0.029006  146.59  0.007094  ( 0.055988 -0.048299 -0.040325)
107:   1283.01   0.001508    7.62  0.000367  ( 0.010855  0.006869  0.014201)
108:   1298.35   0.001984   10.03  0.000477  (-0.020259  0.006705 -0.004636)
109:   1312.84   0.005444   27.51  0.001294  ( 0.033282 -0.012903 -0.004451)
110:   1317.57   0.015408   77.86  0.003649  ( 0.006690 -0.042551  0.042354)
111:   1325.77   0.008076   40.81  0.001901  (-0.005606 -0.042818  0.006014)
112:   1330.27   0.003701   18.70  0.000868  ( 0.002728 -0.007902  0.028254)
113:   1333.58   0.008561   43.27  0.002003  ( 0.027155  0.035360  0.003952)
114:   1338.44   0.015954   80.63  0.003720  (-0.008045  0.045932 -0.039311)
115:   1343.55   0.010909   55.13  0.002534  ( 0.028264 -0.041006 -0.007311)
116:   1343.81   0.014723   74.41  0.003419  ( 0.050333 -0.028183  0.009562)
117:   1354.58   0.029210  147.61  0.006729  ( 0.011402  0.050398  0.063712)
118:   1437.22   0.001362    6.88  0.000296  (-0.012072  0.010829 -0.005719)
119:   1474.43   0.003823   19.32  0.000809  ( 0.014268 -0.023979 -0.005522)
120:   1766.16   0.047075  237.90  0.008318  ( 0.030608  0.022209  0.082992)
121:   2818.81   0.006748   34.10  0.000747  ( 0.009779 -0.025486 -0.001357)
122:   2903.55   0.006120   30.93  0.000658  ( 0.010131 -0.012084 -0.020225)
123:   2937.36   0.002272   11.48  0.000241  ( 0.005204  0.010467  0.010232)
124:   2947.75   0.009165   46.32  0.000970  (-0.020135 -0.023687 -0.001939)
125:   2950.43   0.003031   15.32  0.000321  ( 0.013427  0.006514  0.009890)
126:   2958.29   0.012467   63.00  0.001315  (-0.000679  0.028677 -0.022187)
127:   2968.96   0.005464   27.61  0.000574  ( 0.011927 -0.010797  0.017762)
128:   2975.13   0.002969   15.00  0.000311  ( 0.004822 -0.016445 -0.004208)
129:   2980.77   0.004799   24.25  0.000502  ( 0.002646 -0.011893 -0.018813)
130:   3397.69   0.019203   97.05  0.001764  (-0.007752  0.015147 -0.038396)
131:   3405.34   0.063322  320.01  0.005803  (-0.055722 -0.041190 -0.031643)
132:   3410.45   0.001761    8.90  0.000161  (-0.000542  0.011582  0.005168)
133:   3417.61   0.000357    1.80  0.000033  ( 0.000570 -0.005613 -0.000876)
134:   3462.07   0.008228   41.58  0.000742  (-0.008676  0.008730 -0.024293)
135:   3476.46   0.005771   29.16  0.000518  (-0.001801  0.014256  0.017650)
136:   3517.12   0.002842   14.36  0.000252  (-0.014699 -0.005591 -0.002213)
137:   3549.79   0.019900  100.57  0.001749  (-0.029946 -0.020724  0.020570)
138:   3619.36   0.015419   77.92  0.001329  (-0.002924 -0.036240  0.002744)
139:   3631.04   0.011400   57.61  0.000980  (-0.012063 -0.026473 -0.011550)
140:   3631.61   0.013627   68.86  0.001171  ( 0.024440 -0.006456 -0.023063)

--------------------------
THERMOCHEMISTRY AT 298.15K
--------------------------

Temperature         ... 298.15 K
Pressure            ... 1.00 atm
Total Mass          ... 446.19 AMU

Throughout the following assumptions are being made:
  (1) The electronic state is orbitally nondegenerate
  (2) There are no thermally accessible electronically excited states
  (3) Hindered rotations indicated by low frequency modes are not
      treated as such but are treated as vibrations and this may
      cause some error
  (4) All equations used are the standard statistical mechanics
      equations for an ideal gas
  (5) All vibrations are strictly harmonic

freq.       9.62  E(vib)   ...       0.58
freq.      17.93  E(vib)   ...       0.57
freq.      23.71  E(vib)   ...       0.56
freq.      30.44  E(vib)   ...       0.55
freq.      37.45  E(vib)   ...       0.54
freq.      47.01  E(vib)   ...       0.53
freq.      58.75  E(vib)   ...       0.51
freq.      64.78  E(vib)   ...       0.50
freq.      79.22  E(vib)   ...       0.49
freq.      81.29  E(vib)   ...       0.48
freq.      90.60  E(vib)   ...       0.47
freq.      98.31  E(vib)   ...       0.46
freq.     124.99  E(vib)   ...       0.43
freq.     134.63  E(vib)   ...       0.42
freq.     143.07  E(vib)   ...       0.41
freq.     150.95  E(vib)   ...       0.40
freq.     175.21  E(vib)   ...       0.38
freq.     183.13  E(vib)   ...       0.37
freq.     197.04  E(vib)   ...       0.35
freq.     202.87  E(vib)   ...       0.35
freq.     206.96  E(vib)   ...       0.35
freq.     212.74  E(vib)   ...       0.34
freq.     221.62  E(vib)   ...       0.33
freq.     233.57  E(vib)   ...       0.32
freq.     251.68  E(vib)   ...       0.30
freq.     260.59  E(vib)   ...       0.30
freq.     274.43  E(vib)   ...       0.28
freq.     275.75  E(vib)   ...       0.28
freq.     296.03  E(vib)   ...       0.27
freq.     305.13  E(vib)   ...       0.26
freq.     327.79  E(vib)   ...       0.24
freq.     329.68  E(vib)   ...       0.24
freq.     335.45  E(vib)   ...       0.24
freq.     338.32  E(vib)   ...       0.23
freq.     343.93  E(vib)   ...       0.23
freq.     354.30  E(vib)   ...       0.22
freq.     364.09  E(vib)   ...       0.22
freq.     382.39  E(vib)   ...       0.21
freq.     398.11  E(vib)   ...       0.20
freq.     402.87  E(vib)   ...       0.19
freq.     405.68  E(vib)   ...       0.19
freq.     413.06  E(vib)   ...       0.19
freq.     425.48  E(vib)   ...       0.18
freq.     427.28  E(vib)   ...       0.18
freq.     434.23  E(vib)   ...       0.17
freq.     443.02  E(vib)   ...       0.17
freq.     450.33  E(vib)   ...       0.17
freq.     453.92  E(vib)   ...       0.16
freq.     470.58  E(vib)   ...       0.15
freq.     493.48  E(vib)   ...       0.14
freq.     498.05  E(vib)   ...       0.14
freq.     518.32  E(vib)   ...       0.13
freq.     522.97  E(vib)   ...       0.13
freq.     535.53  E(vib)   ...       0.12
freq.     559.25  E(vib)   ...       0.12
freq.     578.16  E(vib)   ...       0.11
freq.     594.32  E(vib)   ...       0.10
freq.     622.73  E(vib)   ...       0.09
freq.     639.03  E(vib)   ...       0.09
freq.     752.19  E(vib)   ...       0.06
freq.     761.49  E(vib)   ...       0.06
freq.     791.41  E(vib)   ...       0.05
freq.     807.68  E(vib)   ...       0.05
freq.     822.27  E(vib)   ...       0.05
freq.     834.01  E(vib)   ...       0.04
freq.     835.43  E(vib)   ...       0.04
freq.     853.74  E(vib)   ...       0.04
freq.     857.74  E(vib)   ...       0.04
freq.     859.42  E(vib)   ...       0.04
freq.     894.04  E(vib)   ...       0.03
freq.     899.72  E(vib)   ...       0.03
freq.     914.56  E(vib)   ...       0.03
freq.     920.18  E(vib)   ...       0.03
freq.     934.90  E(vib)   ...       0.03
freq.     950.68  E(vib)   ...       0.03
freq.     960.25  E(vib)   ...       0.03
freq.     989.40  E(vib)   ...       0.02
freq.    1008.44  E(vib)   ...       0.02
freq.    1038.65  E(vib)   ...       0.02
freq.    1063.46  E(vib)   ...       0.02
freq.    1069.73  E(vib)   ...       0.02
freq.    1080.01  E(vib)   ...       0.02
freq.    1087.00  E(vib)   ...       0.02
freq.    1095.28  E(vib)   ...       0.02
freq.    1101.95  E(vib)   ...       0.02
freq.    1112.96  E(vib)   ...       0.01
freq.    1114.38  E(vib)   ...       0.01
freq.    1129.23  E(vib)   ...       0.01
freq.    1138.64  E(vib)   ...       0.01
freq.    1160.96  E(vib)   ...       0.01
freq.    1164.60  E(vib)   ...       0.01
freq.    1176.51  E(vib)   ...       0.01
freq.    1197.64  E(vib)   ...       0.01
freq.    1203.70  E(vib)   ...       0.01
freq.    1223.13  E(vib)   ...       0.01
freq.    1237.43  E(vib)   ...       0.01
freq.    1243.18  E(vib)   ...       0.01
freq.    1257.77  E(vib)   ...       0.01
freq.    1264.50  E(vib)   ...       0.01
freq.    1267.80  E(vib)   ...       0.01
freq.    1276.07  E(vib)   ...       0.01
freq.    1283.01  E(vib)   ...       0.01
freq.    1298.35  E(vib)   ...       0.01
freq.    1312.84  E(vib)   ...       0.01
freq.    1317.57  E(vib)   ...       0.01
freq.    1325.77  E(vib)   ...       0.01
freq.    1330.27  E(vib)   ...       0.01
freq.    1333.58  E(vib)   ...       0.01
freq.    1338.44  E(vib)   ...       0.01
freq.    1343.55  E(vib)   ...       0.01
freq.    1343.81  E(vib)   ...       0.01
freq.    1354.58  E(vib)   ...       0.01
freq.    1437.22  E(vib)   ...       0.00
freq.    1474.43  E(vib)   ...       0.00
freq.    1766.16  E(vib)   ...       0.00
freq.    2818.81  E(vib)   ...       0.00
freq.    2903.55  E(vib)   ...       0.00
freq.    2937.36  E(vib)   ...       0.00
freq.    2947.75  E(vib)   ...       0.00
freq.    2950.43  E(vib)   ...       0.00
freq.    2958.29  E(vib)   ...       0.00
freq.    2968.96  E(vib)   ...       0.00
freq.    2975.13  E(vib)   ...       0.00
freq.    2980.77  E(vib)   ...       0.00
freq.    3397.69  E(vib)   ...       0.00
freq.    3405.34  E(vib)   ...       0.00
freq.    3410.45  E(vib)   ...       0.00
freq.    3417.61  E(vib)   ...       0.00
freq.    3462.07  E(vib)   ...       0.00
freq.    3476.46  E(vib)   ...       0.00
freq.    3517.12  E(vib)   ...       0.00
freq.    3549.79  E(vib)   ...       0.00
freq.    3619.36  E(vib)   ...       0.00
freq.    3631.04  E(vib)   ...       0.00
freq.    3631.61  E(vib)   ...       0.00

------------
INNER ENERGY
------------

The inner energy is: U= E(el) + E(ZPE) + E(vib) + E(rot) + E(trans)
    E(el)   - is the total energy from the electronic structure calculation
              = E(kin-el) + E(nuc-el) + E(el-el) + E(nuc-nuc)
    E(ZPE)  - the the zero temperature vibrational energy from the frequency calculation

Rotational constants in cm-1:     0.010358     0.002590     0.002331

                             ****ORCA TERMINATED NORMALLY****
TOTAL RUN TIME: 0 days 0 hours 11 minutes 53 seconds 885 msec
