                         Program Version 5.0.3 -  RELEASE  -
|  1> ! XTB2 opt numfreq
|  2> * XYZ 0 1
|  3> C -3.4221 2.2997 0.8091
|  4> C -2.7557 1.2251 -0.0568
|  5> O -2.7238 1.7049 -1.4203
|  6> C -3.6966 0.0103 -0.0727
|  7> O -4.4967 -0.2437 -0.9616
|  8> O -3.6230 -0.7763 1.0192
|  9> C -1.3183 0.8336 0.4224
| 10> O -1.3593 0.3416 1.7846
| 11> C -0.4547 2.1111 0.4574
| 12> O -0.1147 2.7357 1.4529
| 13> O -0.0933 2.5794 -0.7545
| 14> C -0.6689 -0.2682 -0.4721
| 15> O -0.6271 0.0519 -1.8761
| 16> C 0.7725 -0.6542 -0.0436
| 17> O 1.6846 0.3485 -0.5380
| 18> C 1.1669 -2.0545 -0.5867
| 19> O 0.2543 -3.0339 -0.0727
| 20> C 2.6013 -2.4537 -0.2036
| 21> O 3.5408 -1.7011 -0.9459
| 22> P 4.6760 -0.9189 -0.1385
| 23> O 5.6595 -1.7774 0.5783
| 24> O 5.3552 0.0318 -1.2251
| 25> O 3.8884 0.1241 0.7714
| 26> H -3.4747 2.0043 1.8621
| 27> H -4.4463 2.4932 0.4683
| 28> H -2.8943 3.2568 0.7369
| 29> H -3.6511 1.7255 -1.7391
| 30> H -4.2961 -1.4773 0.8566
| 31> H -2.0870 -0.3086 1.8603
| 32> H 0.4573 3.3626 -0.5452
| 33> H -1.2964 -1.1607 -0.3798
| 34> H -1.2718 0.7743 -2.0474
| 35> H 0.8479 -0.6734 1.0494
| 36> H 1.3527 0.5441 -1.4453
| 37> H 1.0850 -2.0482 -1.6807
| 38> H 0.4863 -3.8853 -0.4871
| 39> H 2.7677 -3.5116 -0.4352
| 40> H 2.7550 -2.3479 0.8771
| 41> H 6.2791 0.2174 -0.9616
| 42> H 3.1410 0.5192 0.2612
| 43> *
| 44>
| 45>                          ****END OF INPUT****
FINAL SINGLE POINT ENERGY       -83.472999027270
FINAL SINGLE POINT ENERGY       -83.485656283680
FINAL SINGLE POINT ENERGY       -83.491653760850
FINAL SINGLE POINT ENERGY       -83.494805590840
FINAL SINGLE POINT ENERGY       -83.495934243920
FINAL SINGLE POINT ENERGY       -83.496731000320
FINAL SINGLE POINT ENERGY       -83.497273561680
FINAL SINGLE POINT ENERGY       -83.497728896790
FINAL SINGLE POINT ENERGY       -83.497989061970
FINAL SINGLE POINT ENERGY       -83.498107531190
FINAL SINGLE POINT ENERGY       -83.498192563760
FINAL SINGLE POINT ENERGY       -83.498267513020
FINAL SINGLE POINT ENERGY       -83.498300547210
FINAL SINGLE POINT ENERGY       -83.498314491710
FINAL SINGLE POINT ENERGY       -83.498323380580
FINAL SINGLE POINT ENERGY       -83.498326676690
FINAL SINGLE POINT ENERGY       -83.498328319000
FINAL SINGLE POINT ENERGY       -83.498329215500
                    ***********************HURRAY********************

CARTESIAN COORDINATES (ANGSTROEM)
---------------------------------
  C    -3.465579    2.166899    0.895715
  C    -2.761906    1.233372   -0.103083
  O    -2.646321    1.842116   -1.366998
  C    -3.642678   -0.004753   -0.276629
  O    -4.256168   -0.197375   -1.294261
  O    -3.711220   -0.803397    0.783792
  C    -1.337584    0.850299    0.433452
  O    -1.405932    0.383893    1.746657
  C    -0.475739    2.124348    0.490111
  O    -0.113395    2.638642    1.505260
  O    -0.191765    2.608099   -0.718317
  C    -0.683627   -0.222090   -0.476601
  O    -0.543519    0.156973   -1.820121
  C     0.726292   -0.569763    0.057647
  O     1.625439    0.429423   -0.338251
  C     1.121683   -1.965683   -0.464925
  O     0.196263   -2.875041    0.086600
  C     2.563427   -2.342708   -0.089037
  O     3.460410   -1.632764   -0.909660
  P     4.708653   -0.894446   -0.179544
  O     5.714458   -1.785101    0.386886
  O     5.212240    0.003060   -1.397014
  O     4.066103    0.113080    0.841106
  H    -3.403074    1.752876    1.897417
  H    -4.506849    2.302740    0.611809
  H    -2.968348    3.132760    0.880781
  H    -3.361812    1.491239   -1.926503
  H    -4.322964   -1.540983    0.619228
  H    -1.934802   -0.424488    1.779229
  H     0.360553    3.401813   -0.634993
  H    -1.300420   -1.133031   -0.410637
  H    -1.086911    0.947522   -1.980122
  H     0.714292   -0.586268    1.151417
  H     1.465505    0.575538   -1.286287
  H     1.050673   -1.952869   -1.564273
  H     0.437263   -3.767454   -0.187591
  H     2.711962   -3.417428   -0.257936
  H     2.748352   -2.133717    0.969755
  H     5.994256   -0.398543   -1.770677
  H     3.242391    0.493408    0.494200

FINAL SINGLE POINT ENERGY       -83.498329763530

VIBRATIONAL FREQUENCIES
-----------------------

Scaling factor for frequencies =  1.000000000 (already applied!)

   0:         0.00 cm**-1
   1:         0.00 cm**-1
   2:         0.00 cm**-1
   3:         0.00 cm**-1
   4:         0.00 cm**-1
   5:         0.00 cm**-1
   6:        16.88 cm**-1
   7:        22.40 cm**-1
   8:        33.19 cm**-1
   9:        49.63 cm**-1
  10:        53.86 cm**-1
  11:        61.99 cm**-1
  12:        68.00 cm**-1
  13:        80.80 cm**-1
  14:       100.15 cm**-1
  15:       113.27 cm**-1
  16:       139.33 cm**-1
  17:       146.10 cm**-1
  18:       160.57 cm**-1
  19:       168.20 cm**-1
  20:       182.18 cm**-1
  21:       204.46 cm**-1
  22:       211.76 cm**-1
  23:       215.08 cm**-1
  24:       242.30 cm**-1
  25:       245.38 cm**-1
  26:       272.22 cm**-1
  27:       280.99 cm**-1
  28:       298.54 cm**-1
  29:       304.41 cm**-1
  30:       305.30 cm**-1
  31:       319.39 cm**-1
  32:       324.50 cm**-1
  33:       328.51 cm**-1
  34:       347.96 cm**-1
  35:       350.59 cm**-1
  36:       363.90 cm**-1
  37:       380.43 cm**-1
  38:       390.98 cm**-1
  39:       402.36 cm**-1
  40:       413.56 cm**-1
  41:       427.85 cm**-1
  42:       443.45 cm**-1
  43:       480.68 cm**-1
  44:       484.24 cm**-1
  45:       505.95 cm**-1
  46:       511.84 cm**-1
  47:       527.35 cm**-1
  48:       541.85 cm**-1
  49:       589.92 cm**-1
  50:       596.69 cm**-1
  51:       609.92 cm**-1
  52:       639.51 cm**-1
  53:       643.60 cm**-1
  54:       698.43 cm**-1
  55:       718.01 cm**-1
  56:       731.78 cm**-1
  57:       756.55 cm**-1
  58:       761.62 cm**-1
  59:       812.48 cm**-1
  60:       824.33 cm**-1
  61:       871.74 cm**-1
  62:       881.29 cm**-1
  63:       913.22 cm**-1
  64:       946.63 cm**-1
  65:       972.14 cm**-1
  66:       973.66 cm**-1
  67:       988.73 cm**-1
  68:      1038.64 cm**-1
  69:      1048.28 cm**-1
  70:      1058.33 cm**-1
  71:      1091.22 cm**-1
  72:      1099.06 cm**-1
  73:      1100.86 cm**-1
  74:      1111.36 cm**-1
  75:      1118.49 cm**-1
  76:      1124.14 cm**-1
  77:      1133.35 cm**-1
  78:      1140.93 cm**-1
  79:      1156.29 cm**-1
  80:      1163.57 cm**-1
  81:      1192.09 cm**-1
  82:      1201.82 cm**-1
  83:      1218.24 cm**-1
  84:      1230.95 cm**-1
  85:      1236.72 cm**-1
  86:      1238.17 cm**-1
  87:      1271.84 cm**-1
  88:      1280.45 cm**-1
  89:      1286.48 cm**-1
  90:      1287.11 cm**-1
  91:      1304.61 cm**-1
  92:      1310.26 cm**-1
  93:      1327.60 cm**-1
  94:      1338.60 cm**-1
  95:      1347.76 cm**-1
  96:      1357.99 cm**-1
  97:      1388.31 cm**-1
  98:      1456.52 cm**-1
  99:      1469.81 cm**-1
 100:      1474.50 cm**-1
 101:      1776.36 cm**-1
 102:      1811.51 cm**-1
 103:      2860.70 cm**-1
 104:      2867.87 cm**-1
 105:      2893.00 cm**-1
 106:      2933.42 cm**-1
 107:      2972.80 cm**-1
 108:      3032.64 cm**-1
 109:      3055.79 cm**-1
 110:      3061.89 cm**-1
 111:      3311.59 cm**-1
 112:      3348.54 cm**-1
 113:      3367.91 cm**-1
 114:      3396.36 cm**-1
 115:      3408.63 cm**-1
 116:      3437.00 cm**-1
 117:      3491.10 cm**-1
 118:      3534.04 cm**-1
 119:      3638.95 cm**-1

IR SPECTRUM
-----------

 Mode   freq       eps      Int      T**2         TX        TY        TZ
       cm**-1   L/(mol*cm) km/mol    a.u.
----------------------------------------------------------------------------
  6:     16.88   0.000092    0.46  0.001692  ( 0.024320 -0.007657 -0.032278)
  7:     22.40   0.000645    3.26  0.008984  (-0.028473  0.086078  0.027647)
  8:     33.19   0.000044    0.22  0.000415  (-0.004937 -0.012375 -0.015415)
  9:     49.63   0.000144    0.73  0.000907  ( 0.026992  0.010882 -0.007733)
 10:     53.86   0.000520    2.63  0.003011  ( 0.048861 -0.022265  0.011298)
 11:     61.99   0.000261    1.32  0.001312  ( 0.029768 -0.014839 -0.014338)
 12:     68.00   0.000764    3.86  0.003505  (-0.048149 -0.014871  0.031077)
 13:     80.80   0.000646    3.26  0.002495  (-0.028573 -0.030224 -0.027652)
 14:    100.15   0.000295    1.49  0.000918  ( 0.027345  0.013035 -0.000833)
 15:    113.27   0.001021    5.16  0.002813  ( 0.005234 -0.021234  0.048317)
 16:    139.33   0.001629    8.23  0.003648  ( 0.055040  0.023786 -0.007279)
 17:    146.10   0.001093    5.52  0.002335  (-0.027638  0.003630 -0.039471)
 18:    160.57   0.000676    3.42  0.001313  (-0.010527 -0.001889  0.034628)
 19:    168.20   0.001712    8.65  0.003177  ( 0.047976  0.012320  0.026894)
 20:    182.18   0.000957    4.84  0.001639  ( 0.038433  0.010915 -0.006540)
 21:    204.46   0.001304    6.59  0.001990  ( 0.008695  0.038289  0.021166)
 22:    211.76   0.008205   41.46  0.012091  ( 0.081659  0.060242  0.042356)
 23:    215.08   0.008299   41.94  0.012042  ( 0.074853  0.035206  0.072108)
 24:    242.30   0.001403    7.09  0.001807  ( 0.001633 -0.036083  0.022416)
 25:    245.38   0.006891   34.82  0.008763  ( 0.092143  0.015707 -0.005126)
 26:    272.22   0.006709   33.91  0.007691  ( 0.079911  0.017314  0.031708)
 27:    280.99   0.007206   36.41  0.008003  ( 0.027176 -0.021107 -0.082574)
 28:    298.54   0.009393   47.47  0.009818  ( 0.042113 -0.007769  0.089355)
 29:    304.41   0.001231    6.22  0.001262  (-0.004369  0.034288  0.008188)
 30:    305.30   0.021869  110.52  0.022353  ( 0.126176 -0.021103  0.077379)
 31:    319.39   0.001743    8.81  0.001703  ( 0.006423  0.024760  0.032381)
 32:    324.50   0.014210   71.81  0.013666  ( 0.099855 -0.039193  0.046458)
 33:    328.51   0.020866  105.45  0.019822  ( 0.108133 -0.089109  0.013728)
 34:    347.96   0.018326   92.61  0.016436  (-0.118936 -0.027727  0.038999)
 35:    350.59   0.005779   29.21  0.005144  (-0.064946 -0.030411 -0.001227)
 36:    363.90   0.007397   37.38  0.006343  ( 0.076020 -0.022221 -0.008408)
 37:    380.43   0.000320    1.62  0.000263  (-0.005382  0.004439 -0.014628)
 38:    390.98   0.003351   16.93  0.002674  ( 0.046270 -0.021502 -0.008436)
 39:    402.36   0.010503   53.08  0.008146  ( 0.069198 -0.047103 -0.033748)
 40:    413.56   0.014349   72.51  0.010828  ( 0.092926 -0.023364 -0.040574)
 41:    427.85   0.000427    2.16  0.000312  ( 0.010069  0.007119 -0.012634)
 42:    443.45   0.005942   30.03  0.004181  ( 0.047695  0.038077  0.021364)
 43:    480.68   0.021918  110.76  0.014230  (-0.059193  0.102550  0.014463)
 44:    484.24   0.021970  111.02  0.014158  (-0.102489  0.003604  0.060340)
 45:    505.95   0.036127  182.57  0.022283  (-0.019895  0.134410  0.061814)
 46:    511.84   0.007632   38.57  0.004653  (-0.052419 -0.012183  0.041918)
 47:    527.35   0.010934   55.26  0.006470  ( 0.060159  0.006715  0.052972)
 48:    541.85   0.004464   22.56  0.002571  (-0.003879 -0.049474  0.010393)
 49:    589.92   0.004257   21.51  0.002252  ( 0.005378 -0.035150  0.031425)
 50:    596.69   0.026741  135.14  0.013985  ( 0.104357  0.055563  0.002781)
 51:    609.92   0.028391  143.48  0.014526  ( 0.057678 -0.098816 -0.037879)
 52:    639.51   0.035605  179.93  0.017374  (-0.119442  0.007026  0.055304)
 53:    643.60   0.019310   97.58  0.009363  (-0.081300  0.045586 -0.025980)
 54:    698.43   0.000639    3.23  0.000286  ( 0.007256 -0.007535  0.013273)
 55:    718.01   0.013630   68.88  0.005924  ( 0.063643 -0.010920 -0.041883)
 56:    731.78   0.030542  154.35  0.013024  ( 0.069722 -0.089818 -0.009796)
 57:    756.55   0.017314   87.50  0.007142  (-0.062100 -0.053286 -0.021118)
 58:    761.62   0.013880   70.14  0.005687  ( 0.052425  0.027093  0.046952)
 59:    812.48   0.034625  174.98  0.013299  ( 0.077551  0.083837 -0.016000)
 60:    824.33   0.000828    4.18  0.000313  ( 0.016828  0.005409 -0.000978)
 61:    871.74   0.054292  274.37  0.019435  ( 0.083233  0.026604 -0.108628)
 62:    881.29   0.004842   24.47  0.001714  ( 0.021587  0.018905  0.029851)
 63:    913.22   0.035552  179.67  0.012149  (-0.004667 -0.100319  0.045422)
 64:    946.63   0.001316    6.65  0.000434  (-0.011792 -0.017022  0.002230)
 65:    972.14   0.001937    9.79  0.000622  (-0.012307 -0.017591  0.012679)
 66:    973.66   0.002806   14.18  0.000899  (-0.001860 -0.012088 -0.027382)
 67:    988.73   0.063116  318.96  0.019921  ( 0.026024  0.084754  0.109820)
 68:   1038.64   0.000721    3.64  0.000217  (-0.010942  0.003332  0.009259)
 69:   1048.28   0.005891   29.77  0.001754  ( 0.040395  0.011024  0.000688)
 70:   1058.33   0.006709   33.90  0.001978  ( 0.043090  0.003460 -0.010456)
 71:   1091.22   0.003857   19.49  0.001103  ( 0.024444  0.015897  0.015896)
 72:   1099.06   0.034714  175.43  0.009857  (-0.090493 -0.036538  0.018241)
 73:   1100.86   0.014380   72.67  0.004076  ( 0.003930  0.032216 -0.054981)
 74:   1111.36   0.002556   12.92  0.000718  ( 0.015795  0.018715 -0.010867)
 75:   1118.49   0.004519   22.84  0.001261  ( 0.013520 -0.000199 -0.032834)
 76:   1124.14   0.007549   38.15  0.002096  ( 0.026630  0.001628 -0.037201)
 77:   1133.35   0.043420  219.43  0.011956  ( 0.014958  0.059301 -0.090638)
 78:   1140.93   0.068141  344.35  0.018638  ( 0.033175  0.060379 -0.117861)
 79:   1156.29   0.001226    6.19  0.000331  ( 0.006532 -0.015830 -0.006127)
 80:   1163.57   0.004100   20.72  0.001100  ( 0.015936  0.024050  0.016349)
 81:   1192.09   0.007504   37.92  0.001964  ( 0.007454 -0.001506 -0.043663)
 82:   1201.82   0.007973   40.29  0.002070  ( 0.022309  0.002266  0.039591)
 83:   1218.24   0.003848   19.45  0.000986  (-0.017304 -0.014334 -0.021929)
 84:   1230.95   0.025312  127.92  0.006417  (-0.059049 -0.043103  0.032746)
 85:   1236.72   0.042507  214.81  0.010726  ( 0.048271  0.072589 -0.055915)
 86:   1238.17   0.019753   99.83  0.004979  (-0.037009 -0.058593 -0.013257)
 87:   1271.84   0.016138   81.55  0.003960  (-0.048352 -0.000177  0.040271)
 88:   1280.45   0.008662   43.77  0.002111  (-0.028368  0.012373 -0.033958)
 89:   1286.48   0.056562  285.84  0.013720  ( 0.099876 -0.054759  0.027325)
 90:   1287.11   0.028280  142.92  0.006857  ( 0.025532 -0.053933  0.057410)
 91:   1304.61   0.002908   14.70  0.000696  ( 0.016071 -0.008980 -0.018888)
 92:   1310.26   0.003499   17.68  0.000833  (-0.024494  0.006488 -0.013834)
 93:   1327.60   0.012278   62.05  0.002886  (-0.036886 -0.034464 -0.018376)
 94:   1338.60   0.012484   63.09  0.002910  ( 0.018342  0.048558  0.014703)
 95:   1347.76   0.014446   73.00  0.003345  (-0.006492 -0.008702  0.056805)
 96:   1357.99   0.021414  108.22  0.004921  ( 0.039267  0.023623 -0.053113)
 97:   1388.31   0.000665    3.36  0.000149  (-0.010287  0.003873  0.005349)
 98:   1456.52   0.000794    4.01  0.000170  (-0.008502  0.000205 -0.009894)
 99:   1469.81   0.003008   15.20  0.000639  (-0.002265 -0.006977 -0.024182)
100:   1474.50   0.009153   46.26  0.001937  (-0.018034  0.001695 -0.040113)
101:   1776.36   0.085067  429.89  0.014944  (-0.057449 -0.008493 -0.107572)
102:   1811.51   0.091869  464.27  0.015826  ( 0.032888  0.042085  0.113900)
103:   2860.70   0.017255   87.20  0.001882  (-0.021179 -0.031202  0.021452)
104:   2867.87   0.002132   10.77  0.000232  ( 0.001727  0.002073  0.014990)
105:   2893.00   0.008335   42.12  0.000899  ( 0.000298  0.029795  0.003356)
106:   2933.42   0.005320   26.88  0.000566  (-0.001347 -0.006371  0.022881)
107:   2972.80   0.003536   17.87  0.000371  (-0.001361 -0.000070  0.019219)
108:   3032.64   0.002451   12.38  0.000252  ( 0.013384 -0.000014  0.008546)
109:   3055.79   0.000551    2.78  0.000056  (-0.005236  0.000777 -0.005311)
110:   3061.89   0.003424   17.31  0.000349  ( 0.000090 -0.000585 -0.018672)
111:   3311.59   0.114433  578.30  0.010783  (-0.097332  0.028406 -0.022429)
112:   3348.54   0.029258  147.86  0.002727  (-0.049950  0.014081 -0.005774)
113:   3367.91   0.028466  143.86  0.002638  ( 0.014768 -0.048019 -0.010663)
114:   3396.36   0.014031   70.91  0.001289  (-0.001985  0.000992 -0.035837)
115:   3408.63   0.013564   68.55  0.001242  ( 0.023481  0.025463  0.006486)
116:   3437.00   0.009086   45.92  0.000825  ( 0.022174  0.015321 -0.009927)
117:   3491.10   0.007904   39.94  0.000706  ( 0.016732  0.015150  0.014035)
118:   3534.04   0.009896   50.01  0.000874  (-0.012064  0.026715 -0.003823)
119:   3638.95   0.012264   61.98  0.001052  ( 0.024650 -0.020908 -0.002637)

--------------------------
THERMOCHEMISTRY AT 298.15K
--------------------------

Temperature         ... 298.15 K
Pressure            ... 1.00 atm
Total Mass          ... 364.20 AMU

Throughout the following assumptions are being made:
  (1) The electronic state is orbitally nondegenerate
  (2) There are no thermally accessible electronically excited states
  (3) Hindered rotations indicated by low frequency modes are not
      treated as such but are treated as vibrations and this may
      cause some error
  (4) All equations used are the standard statistical mechanics
      equations for an ideal gas
  (5) All vibrations are strictly harmonic

freq.      16.88  E(vib)   ...       0.57
freq.      22.40  E(vib)   ...       0.56
freq.      33.19  E(vib)   ...       0.55
freq.      49.63  E(vib)   ...       0.52
freq.      53.86  E(vib)   ...       0.52
freq.      61.99  E(vib)   ...       0.51
freq.      68.00  E(vib)   ...       0.50
freq.      80.80  E(vib)   ...       0.48
freq.     100.15  E(vib)   ...       0.46
freq.     113.27  E(vib)   ...       0.45
freq.     139.33  E(vib)   ...       0.42
freq.     146.10  E(vib)   ...       0.41
freq.     160.57  E(vib)   ...       0.39
freq.     168.20  E(vib)   ...       0.38
freq.     182.18  E(vib)   ...       0.37
freq.     204.46  E(vib)   ...       0.35
freq.     211.76  E(vib)   ...       0.34
freq.     215.08  E(vib)   ...       0.34
freq.     242.30  E(vib)   ...       0.31
freq.     245.38  E(vib)   ...       0.31
freq.     272.22  E(vib)   ...       0.29
freq.     280.99  E(vib)   ...       0.28
freq.     298.54  E(vib)   ...       0.26
freq.     304.41  E(vib)   ...       0.26
freq.     305.30  E(vib)   ...       0.26
freq.     319.39  E(vib)   ...       0.25
freq.     324.50  E(vib)   ...       0.24
freq.     328.51  E(vib)   ...       0.24
freq.     347.96  E(vib)   ...       0.23
freq.     350.59  E(vib)   ...       0.23
freq.     363.90  E(vib)   ...       0.22
freq.     380.43  E(vib)   ...       0.21
freq.     390.98  E(vib)   ...       0.20
freq.     402.36  E(vib)   ...       0.19
freq.     413.56  E(vib)   ...       0.19
freq.     427.85  E(vib)   ...       0.18
freq.     443.45  E(vib)   ...       0.17
freq.     480.68  E(vib)   ...       0.15
freq.     484.24  E(vib)   ...       0.15
freq.     505.95  E(vib)   ...       0.14
freq.     511.84  E(vib)   ...       0.14
freq.     527.35  E(vib)   ...       0.13
freq.     541.85  E(vib)   ...       0.12
freq.     589.92  E(vib)   ...       0.10
freq.     596.69  E(vib)   ...       0.10
freq.     609.92  E(vib)   ...       0.10
freq.     639.51  E(vib)   ...       0.09
freq.     643.60  E(vib)   ...       0.09
freq.     698.43  E(vib)   ...       0.07
freq.     718.01  E(vib)   ...       0.07
freq.     731.78  E(vib)   ...       0.06
freq.     756.55  E(vib)   ...       0.06
freq.     761.62  E(vib)   ...       0.06
freq.     812.48  E(vib)   ...       0.05
freq.     824.33  E(vib)   ...       0.04
freq.     871.74  E(vib)   ...       0.04
freq.     881.29  E(vib)   ...       0.04
freq.     913.22  E(vib)   ...       0.03
freq.     946.63  E(vib)   ...       0.03
freq.     972.14  E(vib)   ...       0.03
freq.     973.66  E(vib)   ...       0.03
freq.     988.73  E(vib)   ...       0.02
freq.    1038.64  E(vib)   ...       0.02
freq.    1048.28  E(vib)   ...       0.02
freq.    1058.33  E(vib)   ...       0.02
freq.    1091.22  E(vib)   ...       0.02
freq.    1099.06  E(vib)   ...       0.02
freq.    1100.86  E(vib)   ...       0.02
freq.    1111.36  E(vib)   ...       0.01
freq.    1118.49  E(vib)   ...       0.01
freq.    1124.14  E(vib)   ...       0.01
freq.    1133.35  E(vib)   ...       0.01
freq.    1140.93  E(vib)   ...       0.01
freq.    1156.29  E(vib)   ...       0.01
freq.    1163.57  E(vib)   ...       0.01
freq.    1192.09  E(vib)   ...       0.01
freq.    1201.82  E(vib)   ...       0.01
freq.    1218.24  E(vib)   ...       0.01
freq.    1230.95  E(vib)   ...       0.01
freq.    1236.72  E(vib)   ...       0.01
freq.    1238.17  E(vib)   ...       0.01
freq.    1271.84  E(vib)   ...       0.01
freq.    1280.45  E(vib)   ...       0.01
freq.    1286.48  E(vib)   ...       0.01
freq.    1287.11  E(vib)   ...       0.01
freq.    1304.61  E(vib)   ...       0.01
freq.    1310.26  E(vib)   ...       0.01
freq.    1327.60  E(vib)   ...       0.01
freq.    1338.60  E(vib)   ...       0.01
freq.    1347.76  E(vib)   ...       0.01
freq.    1357.99  E(vib)   ...       0.01
freq.    1388.31  E(vib)   ...       0.00
freq.    1456.52  E(vib)   ...       0.00
freq.    1469.81  E(vib)   ...       0.00
freq.    1474.50  E(vib)   ...       0.00
freq.    1776.36  E(vib)   ...       0.00
freq.    1811.51  E(vib)   ...       0.00
freq.    2860.70  E(vib)   ...       0.00
freq.    2867.87  E(vib)   ...       0.00
freq.    2893.00  E(vib)   ...       0.00
freq.    2933.42  E(vib)   ...       0.00
freq.    2972.80  E(vib)   ...       0.00
freq.    3032.64  E(vib)   ...       0.00
freq.    3055.79  E(vib)   ...       0.00
freq.    3061.89  E(vib)   ...       0.00
freq.    3311.59  E(vib)   ...       0.00
freq.    3348.54  E(vib)   ...       0.00
freq.    3367.91  E(vib)   ...       0.00
freq.    3396.36  E(vib)   ...       0.00
freq.    3408.63  E(vib)   ...       0.00
freq.    3437.00  E(vib)   ...       0.00
freq.    3491.10  E(vib)   ...       0.00
freq.    3534.04  E(vib)   ...       0.00
freq.    3638.95  E(vib)   ...       0.00

------------
INNER ENERGY
------------

The inner energy is: U= E(el) + E(ZPE) + E(vib) + E(rot) + E(trans)
    E(el)   - is the total energy from the electronic structure calculation
              = E(kin-el) + E(nuc-el) + E(el-el) + E(nuc-nuc)
    E(ZPE)  - the the zero temperature vibrational energy from the frequency calculation
    E(vib)  - the the finite temperature correction to E(ZPE) due to population
              of excited vibrational states
    E(rot)  - is the rotational thermal energy
    E(trans)- is the translational thermal energy

Summary of contributions to the inner energy U:
Electronic energy                ...    -83.49832976 Eh
Zero point energy                ...      0.28535669 Eh     179.06 kcal/mol
Thermal vibrational correction   ...      0.02371731 Eh      14.88 kcal/mol
Thermal rotational correction    ...      0.00141627 Eh       0.89 kcal/mol
Thermal translational correction ...      0.00141627 Eh       0.89 kcal/mol
-----------------------------------------------------------------------
Total thermal energy                    -83.18642322 Eh

Summary of corrections to the electronic energy:
(perhaps to be used in another calculation)
Total thermal correction                  0.02654985 Eh      16.66 kcal/mol
Non-thermal (ZPE) correction              0.28535669 Eh     179.06 kcal/mol
-----------------------------------------------------------------------
Total correction                          0.31190654 Eh     195.72 kcal/mol

Rotational constants in cm-1:     0.016919     0.004325     0.003945

                             ****ORCA TERMINATED NORMALLY****
TOTAL RUN TIME: 0 days 0 hours 9 minutes 57 seconds 580 msec
