                         Program Version 5.0.3 -  RELEASE  -
|  1> ! XTB2 opt numfreq
|  2> * xyz 0 1
|  3> C -2.369965 2.659207 1.244947
|  4> C -2.337044 1.184014 1.495787
|  5> O -2.302331 .634014 2.585303
|  6> C -2.445785 .262505 .244866
|  7> O -3.706506 .604977 -.294518
|  8> O -2.415759 -1.063815 .644674
|  9> C -1.366143 .461336 -.879379
| 10> O -1.691573 1.601230 -1.639461
| 11> C -1.486701 -.774954 -1.791856
| 12> O -.607954 -1.550382 -2.038845
| 13> O -2.704220 -.874978 -2.335603
| 14> C .112058 .641601 -.433110
| 15> O .364820 2.018196 -.182508
| 16> C .580518 -.101703 .836399
| 17> O 1.832846 .438559 1.218153
| 18> C .711046 -1.636494 .707369
| 19> O .936880 -2.186818 1.978321
| 20> C 1.806971 -2.093051 -.267453
| 21> O 3.092432 -1.784711 .236898
| 22> P 3.871570 -.518960 -.357652
| 23> O 3.136500 .312036 -1.320042
| 24> O 5.172447 -1.180485 -.999700
| 25> O 4.525513 .162679 .913533
| 26> H -2.541434 3.162606 2.223625
| 27> H -3.188153 2.901747 .477409
| 28> H -1.349812 2.984002 .809210
| 29> H -4.007415 -.131480 -.848254
| 30> H -2.462894 -1.081362 1.626647
| 31> H -2.660985 1.682516 -1.639963
| 32> H -2.738636 -1.646808 -2.925308
| 33> H .744858 .313699 -1.271106
| 34> H .327423 2.476463 -1.033854
| 35> H -.122601 .087407 1.660037
| 36> H 1.810524 1.367868 .920073
| 37> H -.246827 -2.036858 .367380
| 38> H 1.851136 -1.979926 2.215564
| 39> H 1.659281 -1.643492 -1.249551
| 40> H 1.756474 -3.182848 -.352479
| 41> H 5.309422 -.819382 -1.873933
| 42> H 3.841927 .413936 1.536802
| 43> *
| 44>
| 45>                          ****END OF INPUT****
FINAL SINGLE POINT ENERGY       -83.476074567140
FINAL SINGLE POINT ENERGY       -83.481784868620
FINAL SINGLE POINT ENERGY       -83.481136689100
FINAL SINGLE POINT ENERGY       -83.481947880380
FINAL SINGLE POINT ENERGY       -83.480140615700
FINAL SINGLE POINT ENERGY       -83.481953302020
FINAL SINGLE POINT ENERGY       -83.480578514570
FINAL SINGLE POINT ENERGY       -83.481968157310
FINAL SINGLE POINT ENERGY       -83.481554987990
FINAL SINGLE POINT ENERGY       -83.482046153820
FINAL SINGLE POINT ENERGY       -83.482047095120
FINAL SINGLE POINT ENERGY       -83.482054883200
FINAL SINGLE POINT ENERGY       -83.482056946030
                    ***********************HURRAY********************

CARTESIAN COORDINATES (ANGSTROEM)
---------------------------------
  C    -2.351869    2.642534    1.256793
  C    -2.324593    1.178751    1.484827
  O    -2.295997    0.632152    2.558544
  C    -2.444298    0.264860    0.234544
  O    -3.702319    0.616318   -0.302334
  O    -2.424962   -1.061421    0.629413
  C    -1.362804    0.459576   -0.888335
  O    -1.691473    1.594757   -1.655453
  C    -1.477216   -0.778356   -1.798170
  O    -0.594222   -1.546377   -2.049651
  O    -2.697076   -0.888058   -2.334348
  C     0.109482    0.653006   -0.433666
  O     0.337443    2.024256   -0.164222
  C     0.583421   -0.089819    0.831129
  O     1.838605    0.448387    1.205458
  C     0.708221   -1.623965    0.709690
  O     0.932790   -2.168627    1.982303
  C     1.802391   -2.086808   -0.262220
  O     3.088123   -1.786898    0.246206
  P     3.878345   -0.531993   -0.353746
  O     3.151760    0.296630   -1.323562
  O     5.176421   -1.207693   -0.985453
  O     4.532456    0.153951    0.914492
  H    -2.447380    3.164619    2.204666
  H    -3.175319    2.894828    0.593638
  H    -1.419698    2.927160    0.768854
  H    -4.010925   -0.120521   -0.849762
  H    -2.476982   -1.082865    1.606272
  H    -2.660526    1.663979   -1.666280
  H    -2.730048   -1.661106   -2.922266
  H     0.751078    0.345785   -1.269164
  H     0.213304    2.502213   -0.993489
  H    -0.116678    0.107080    1.655415
  H     1.818230    1.372336    0.909194
  H    -0.251151   -2.022328    0.371846
  H     1.849012   -1.966740    2.216434
  H     1.659506   -1.634370   -1.242464
  H     1.745502   -3.174875   -0.348926
  H     5.323007   -0.848064   -1.858174
  H     3.848348    0.419798    1.530389

FINAL SINGLE POINT ENERGY       -83.482059771770

VIBRATIONAL FREQUENCIES
-----------------------

Scaling factor for frequencies =  1.000000000 (already applied!)

   0:         0.00 cm**-1
   1:         0.00 cm**-1
   2:         0.00 cm**-1
   3:         0.00 cm**-1
   4:         0.00 cm**-1
   5:         0.00 cm**-1
   6:        22.38 cm**-1
   7:        33.68 cm**-1
   8:        42.90 cm**-1
   9:        54.34 cm**-1
  10:        75.21 cm**-1
  11:        75.70 cm**-1
  12:        88.43 cm**-1
  13:        93.27 cm**-1
  14:       118.79 cm**-1
  15:       128.10 cm**-1
  16:       142.51 cm**-1
  17:       148.65 cm**-1
  18:       160.29 cm**-1
  19:       176.24 cm**-1
  20:       180.24 cm**-1
  21:       182.99 cm**-1
  22:       195.42 cm**-1
  23:       205.98 cm**-1
  24:       247.35 cm**-1
  25:       263.77 cm**-1
  26:       273.55 cm**-1
  27:       284.04 cm**-1
  28:       295.92 cm**-1
  29:       312.43 cm**-1
  30:       318.83 cm**-1
  31:       326.44 cm**-1
  32:       343.17 cm**-1
  33:       347.34 cm**-1
  34:       358.44 cm**-1
  35:       371.11 cm**-1
  36:       378.97 cm**-1
  37:       391.06 cm**-1
  38:       398.80 cm**-1
  39:       407.26 cm**-1
  40:       419.56 cm**-1
  41:       423.99 cm**-1
  42:       430.98 cm**-1
  43:       453.71 cm**-1
  44:       457.96 cm**-1
  45:       473.94 cm**-1
  46:       490.94 cm**-1
  47:       496.06 cm**-1
  48:       499.07 cm**-1
  49:       528.80 cm**-1
  50:       546.23 cm**-1
  51:       587.23 cm**-1
  52:       623.11 cm**-1
  53:       646.10 cm**-1
  54:       662.67 cm**-1
  55:       701.68 cm**-1
  56:       710.45 cm**-1
  57:       764.24 cm**-1
  58:       786.42 cm**-1
  59:       812.31 cm**-1
  60:       850.27 cm**-1
  61:       859.83 cm**-1
  62:       880.00 cm**-1
  63:       902.10 cm**-1
  64:       927.07 cm**-1
  65:       963.74 cm**-1
  66:       977.32 cm**-1
  67:       986.29 cm**-1
  68:       998.42 cm**-1
  69:      1006.57 cm**-1
  70:      1025.81 cm**-1
  71:      1038.04 cm**-1
  72:      1063.84 cm**-1
  73:      1078.30 cm**-1
  74:      1088.27 cm**-1
  75:      1110.81 cm**-1
  76:      1119.46 cm**-1
  77:      1130.10 cm**-1
  78:      1137.16 cm**-1
  79:      1144.70 cm**-1
  80:      1172.63 cm**-1
  81:      1183.85 cm**-1
  82:      1203.75 cm**-1
  83:      1220.62 cm**-1
  84:      1233.47 cm**-1
  85:      1235.84 cm**-1
  86:      1240.14 cm**-1
  87:      1248.19 cm**-1
  88:      1278.27 cm**-1
  89:      1290.18 cm**-1
  90:      1299.31 cm**-1
  91:      1310.36 cm**-1
  92:      1321.06 cm**-1
  93:      1325.61 cm**-1
  94:      1328.13 cm**-1
  95:      1345.48 cm**-1
  96:      1349.87 cm**-1
  97:      1356.84 cm**-1
  98:      1419.78 cm**-1
  99:      1429.88 cm**-1
 100:      1441.26 cm**-1
 101:      1773.18 cm**-1
 102:      1808.86 cm**-1
 103:      2914.01 cm**-1
 104:      2931.94 cm**-1
 105:      2963.75 cm**-1
 106:      2993.21 cm**-1
 107:      3003.57 cm**-1
 108:      3005.20 cm**-1
 109:      3041.54 cm**-1
 110:      3059.78 cm**-1
 111:      3270.87 cm**-1
 112:      3395.15 cm**-1
 113:      3411.43 cm**-1
 114:      3418.18 cm**-1
 115:      3472.15 cm**-1
 116:      3497.41 cm**-1
 117:      3526.88 cm**-1
 118:      3580.40 cm**-1
 119:      3637.71 cm**-1

IR SPECTRUM
-----------

 Mode   freq       eps      Int      T**2         TX        TY        TZ
       cm**-1   L/(mol*cm) km/mol    a.u.
----------------------------------------------------------------------------
  6:     22.38   0.000111    0.56  0.001544  ( 0.007375 -0.029337 -0.025086)
  7:     33.68   0.000670    3.39  0.006209  (-0.068685 -0.033795  0.018678)
  8:     42.90   0.000088    0.44  0.000639  ( 0.020099  0.007341  0.013451)
  9:     54.34   0.000358    1.81  0.002059  ( 0.041720 -0.011196  0.013882)
 10:     75.21   0.001617    8.17  0.006710  (-0.048988 -0.064849 -0.010245)
 11:     75.70   0.004275   21.60  0.017622  ( 0.100573  0.079578  0.034276)
 12:     88.43   0.003443   17.40  0.012149  ( 0.018919  0.080261  0.073136)
 13:     93.27   0.005148   26.02  0.017226  ( 0.097664  0.060681  0.063288)
 14:    118.79   0.000796    4.02  0.002090  (-0.016769 -0.038578 -0.017903)
 15:    128.10   0.005669   28.65  0.013809  (-0.049767 -0.087296 -0.060923)
 16:    142.51   0.001082    5.47  0.002370  (-0.010948 -0.010179 -0.046332)
 17:    148.65   0.002813   14.22  0.005906  ( 0.003200  0.014153  0.075465)
 18:    160.29   0.001297    6.56  0.002526  ( 0.041326 -0.007416  0.027623)
 19:    176.24   0.001950    9.86  0.003454  (-0.034830  0.009683  0.046332)
 20:    180.24   0.000376    1.90  0.000651  ( 0.003226  0.018188  0.017589)
 21:    182.99   0.001648    8.33  0.002810  ( 0.008082  0.035692  0.038356)
 22:    195.42   0.001260    6.37  0.002012  ( 0.038734  0.016879 -0.015063)
 23:    205.98   0.004395   22.21  0.006658  (-0.065703 -0.038685 -0.029069)
 24:    247.35   0.000672    3.39  0.000847  ( 0.000184 -0.028389 -0.006429)
 25:    263.77   0.000653    3.30  0.000773  ( 0.003774 -0.008789 -0.026106)
 26:    273.55   0.003138   15.86  0.003579  ( 0.032021  0.050530  0.000881)
 27:    284.04   0.003043   15.38  0.003344  ( 0.014458  0.034299  0.044251)
 28:    295.92   0.005134   25.95  0.005415  (-0.022862  0.010513 -0.069148)
 29:    312.43   0.007403   37.41  0.007394  (-0.079691 -0.018498 -0.026480)
 30:    318.83   0.024316  122.88  0.023800  ( 0.109581  0.063487 -0.088097)
 31:    326.44   0.009719   49.12  0.009291  (-0.038779  0.010116 -0.087663)
 32:    343.17   0.002187   11.05  0.001989  ( 0.015513  0.037328 -0.018837)
 33:    347.34   0.001767    8.93  0.001588  ( 0.026209  0.022409  0.019963)
 34:    358.44   0.007184   36.31  0.006255  ( 0.048379 -0.058671  0.021725)
 35:    371.11   0.008043   40.65  0.006763  ( 0.041148  0.069409 -0.015896)
 36:    378.97   0.003144   15.89  0.002589  ( 0.024112 -0.040060 -0.020075)
 37:    391.06   0.007860   39.72  0.006272  (-0.063160  0.044553 -0.017271)
 38:    398.80   0.003827   19.34  0.002995  ( 0.026328  0.044712  0.017395)
 39:    407.26   0.037971  191.89  0.029095  (-0.116671  0.076262  0.098323)
 40:    419.56   0.014834   74.96  0.011033  (-0.000954 -0.079551  0.068584)
 41:    423.99   0.007148   36.12  0.005261  (-0.032187  0.064314  0.009402)
 42:    430.98   0.001882    9.51  0.001363  ( 0.007141  0.006097  0.035702)
 43:    453.71   0.015031   75.96  0.010338  (-0.026005 -0.046849 -0.086414)
 44:    457.96   0.014637   73.97  0.009974  ( 0.002669  0.001089  0.099829)
 45:    473.94   0.009422   47.61  0.006204  ( 0.064799  0.044231  0.006948)
 46:    490.94   0.053324  269.48  0.033895  ( 0.113491 -0.016037 -0.144076)
 47:    496.06   0.018584   93.92  0.011691  ( 0.083844  0.004996 -0.068089)
 48:    499.07   0.002336   11.81  0.001461  (-0.026309 -0.024230 -0.013474)
 49:    528.80   0.008247   41.68  0.004867  ( 0.013952 -0.061057  0.030732)
 50:    546.23   0.030926  156.29  0.017668  ( 0.120088  0.056919 -0.002691)
 51:    587.23   0.005937   30.00  0.003155  (-0.038331 -0.024121  0.033227)
 52:    623.11   0.013024   65.82  0.006523  (-0.027738 -0.045329  0.060815)
 53:    646.10   0.022228  112.33  0.010736  ( 0.017140  0.001939  0.102169)
 54:    662.67   0.019537   98.73  0.009200  (-0.089367  0.003354  0.034675)
 55:    701.68   0.025250  127.60  0.011230  (-0.026351 -0.079468  0.064962)
 56:    710.45   0.002227   11.25  0.000978  (-0.029882 -0.006820  0.006226)
 57:    764.24   0.012031   60.80  0.004912  (-0.002904 -0.052372  0.046488)
 58:    786.42   0.003735   18.87  0.001482  ( 0.027690  0.026656  0.002169)
 59:    812.31   0.022367  113.03  0.008593  ( 0.081933  0.024673 -0.035650)
 60:    850.27   0.037307  188.54  0.013692  ( 0.047247 -0.068258 -0.082468)
 61:    859.83   0.024209  122.34  0.008786  ( 0.018687 -0.060393 -0.069208)
 62:    880.00   0.009008   45.53  0.003195  (-0.005049  0.053175 -0.018478)
 63:    902.10   0.040763  206.00  0.014101  (-0.081300 -0.081245 -0.029842)
 64:    927.07   0.107652  544.03  0.036237  ( 0.188144 -0.006550  0.028212)
 65:    963.74   0.006010   30.37  0.001946  ( 0.028013  0.002743  0.033969)
 66:    977.32   0.003598   18.18  0.001149  (-0.029612  0.013327  0.009712)
 67:    986.29   0.010982   55.50  0.003475  (-0.058180 -0.009349 -0.001574)
 68:    998.42   0.009096   45.97  0.002843  ( 0.046465 -0.024718  0.008550)
 69:   1006.57   0.009631   48.67  0.002986  ( 0.052556  0.014340 -0.004264)
 70:   1025.81   0.004983   25.18  0.001516  ( 0.014814 -0.034920  0.008779)
 71:   1038.04   0.006483   32.76  0.001949  ( 0.032053  0.030020  0.004527)
 72:   1063.84   0.011590   58.57  0.003400  ( 0.019784 -0.048787 -0.025063)
 73:   1078.30   0.037613  190.08  0.010885  (-0.057240 -0.071347  0.050183)
 74:   1088.27   0.010597   53.56  0.003039  (-0.023339  0.049931 -0.001034)
 75:   1110.81   0.026866  135.77  0.007548  (-0.019816 -0.068826  0.049173)
 76:   1119.46   0.045898  231.95  0.012795  ( 0.103511  0.006157  0.045189)
 77:   1130.10   0.016593   83.86  0.004582  (-0.055627 -0.000133 -0.038570)
 78:   1137.16   0.001484    7.50  0.000407  ( 0.006373  0.002087  0.019032)
 79:   1144.70   0.034286  173.27  0.009347  (-0.095413 -0.000657 -0.015590)
 80:   1172.63   0.051230  258.90  0.013634  ( 0.028942 -0.110024 -0.026279)
 81:   1183.85   0.034494  174.32  0.009093  ( 0.043461  0.026825  0.080524)
 82:   1203.75   0.016828   85.04  0.004363  (-0.039740 -0.049795  0.017432)
 83:   1220.62   0.024381  123.21  0.006233  (-0.042877 -0.020418 -0.063070)
 84:   1233.47   0.002458   12.42  0.000622  ( 0.013663 -0.019695 -0.006873)
 85:   1235.84   0.005544   28.02  0.001400  (-0.002704  0.009822 -0.036002)
 86:   1240.14   0.002827   14.29  0.000711  (-0.011015  0.009674 -0.022284)
 87:   1248.19   0.088157  445.51  0.022040  ( 0.087090 -0.090134  0.079571)
 88:   1278.27   0.026675  134.80  0.006512  ( 0.027379 -0.029623  0.069892)
 89:   1290.18   0.005061   25.58  0.001224  ( 0.006221 -0.028279  0.019642)
 90:   1299.31   0.005820   29.41  0.001398  ( 0.029320  0.008493  0.021589)
 91:   1310.36   0.012839   64.88  0.003058  (-0.021597 -0.041898 -0.028911)
 92:   1321.06   0.046400  234.49  0.010961  ( 0.019230 -0.101998  0.013687)
 93:   1325.61   0.015552   78.59  0.003661  ( 0.014909 -0.046222  0.036089)
 94:   1328.13   0.005830   29.46  0.001370  (-0.029053  0.020092 -0.011047)
 95:   1345.48   0.001804    9.12  0.000418  (-0.002595  0.007655 -0.018788)
 96:   1349.87   0.020011  101.13  0.004626  (-0.008716  0.066513  0.011235)
 97:   1356.84   0.004777   24.14  0.001099  (-0.020745 -0.007389  0.024772)
 98:   1419.78   0.003106   15.70  0.000683  (-0.017611 -0.008096 -0.017523)
 99:   1429.88   0.005723   28.92  0.001249  (-0.016153 -0.013564  0.028357)
100:   1441.26   0.001534    7.75  0.000332  (-0.003015  0.004678  0.017356)
101:   1773.18   0.057999  293.10  0.010207  (-0.013680 -0.035806  0.093478)
102:   1808.86   0.091326  461.53  0.015756  ( 0.103304 -0.070975 -0.006812)
103:   2914.01   0.003632   18.35  0.000389  ( 0.010493  0.000978 -0.016670)
104:   2931.94   0.008156   41.22  0.000868  (-0.005850  0.012693  0.025938)
105:   2963.75   0.003931   19.87  0.000414  (-0.000029 -0.017408 -0.010530)
106:   2993.21   0.002459   12.43  0.000256  ( 0.001889  0.009905  0.012436)
107:   3003.57   0.004815   24.33  0.000500  (-0.000275  0.002608 -0.022211)
108:   3005.20   0.006739   34.06  0.000700  (-0.019939  0.007369  0.015746)
109:   3041.54   0.000847    4.28  0.000087  ( 0.008908 -0.002051 -0.001832)
110:   3059.78   0.004739   23.95  0.000483  (-0.004694 -0.010393 -0.018795)
111:   3270.87   0.021533  108.82  0.002054  ( 0.003530 -0.008964 -0.044290)
112:   3395.15   0.022710  114.76  0.002087  (-0.043939 -0.009382  0.008287)
113:   3411.43   0.022926  115.86  0.002097  ( 0.011310 -0.041073  0.016801)
114:   3418.18   0.011055   55.87  0.001009  (-0.003250 -0.026467 -0.017270)
115:   3472.15   0.005187   26.21  0.000466  ( 0.009701  0.017154  0.008823)
116:   3497.41   0.005783   29.23  0.000516  ( 0.020831 -0.008076 -0.004105)
117:   3526.88   0.009401   47.51  0.000832  (-0.006109  0.008315 -0.026932)
118:   3580.40   0.007440   37.60  0.000648  (-0.018450  0.004329  0.017010)
119:   3637.71   0.013673   69.10  0.001173  (-0.010500 -0.003803  0.032376)

--------------------------
THERMOCHEMISTRY AT 298.15K
--------------------------

Temperature         ... 298.15 K
Pressure            ... 1.00 atm
Total Mass          ... 364.20 AMU

Throughout the following assumptions are being made:
  (1) The electronic state is orbitally nondegenerate
  (2) There are no thermally accessible electronically excited states
  (3) Hindered rotations indicated by low frequency modes are not
      treated as such but are treated as vibrations and this may
      cause some error
  (4) All equations used are the standard statistical mechanics
      equations for an ideal gas
  (5) All vibrations are strictly harmonic

freq.      22.38  E(vib)   ...       0.56
freq.      33.68  E(vib)   ...       0.55
freq.      42.90  E(vib)   ...       0.53
freq.      54.34  E(vib)   ...       0.52
freq.      75.21  E(vib)   ...       0.49
freq.      75.70  E(vib)   ...       0.49
freq.      88.43  E(vib)   ...       0.48
freq.      93.27  E(vib)   ...       0.47
freq.     118.79  E(vib)   ...       0.44
freq.     128.10  E(vib)   ...       0.43
freq.     142.51  E(vib)   ...       0.41
freq.     148.65  E(vib)   ...       0.41
freq.     160.29  E(vib)   ...       0.39
freq.     176.24  E(vib)   ...       0.38
freq.     180.24  E(vib)   ...       0.37
freq.     182.99  E(vib)   ...       0.37
freq.     195.42  E(vib)   ...       0.36
freq.     205.98  E(vib)   ...       0.35
freq.     247.35  E(vib)   ...       0.31
freq.     263.77  E(vib)   ...       0.29
freq.     273.55  E(vib)   ...       0.29
freq.     284.04  E(vib)   ...       0.28
freq.     295.92  E(vib)   ...       0.27
freq.     312.43  E(vib)   ...       0.25
freq.     318.83  E(vib)   ...       0.25
freq.     326.44  E(vib)   ...       0.24
freq.     343.17  E(vib)   ...       0.23
freq.     347.34  E(vib)   ...       0.23
freq.     358.44  E(vib)   ...       0.22
freq.     371.11  E(vib)   ...       0.21
freq.     378.97  E(vib)   ...       0.21
freq.     391.06  E(vib)   ...       0.20
freq.     398.80  E(vib)   ...       0.19
freq.     407.26  E(vib)   ...       0.19
freq.     419.56  E(vib)   ...       0.18
freq.     423.99  E(vib)   ...       0.18
freq.     430.98  E(vib)   ...       0.18
freq.     453.71  E(vib)   ...       0.16
freq.     457.96  E(vib)   ...       0.16
freq.     473.94  E(vib)   ...       0.15
freq.     490.94  E(vib)   ...       0.14
freq.     496.06  E(vib)   ...       0.14
freq.     499.07  E(vib)   ...       0.14
freq.     528.80  E(vib)   ...       0.13
freq.     546.23  E(vib)   ...       0.12
freq.     587.23  E(vib)   ...       0.10
freq.     623.11  E(vib)   ...       0.09
freq.     646.10  E(vib)   ...       0.09
freq.     662.67  E(vib)   ...       0.08
freq.     701.68  E(vib)   ...       0.07
freq.     710.45  E(vib)   ...       0.07
freq.     764.24  E(vib)   ...       0.06
freq.     786.42  E(vib)   ...       0.05
freq.     812.31  E(vib)   ...       0.05
freq.     850.27  E(vib)   ...       0.04
freq.     859.83  E(vib)   ...       0.04
freq.     880.00  E(vib)   ...       0.04
freq.     902.10  E(vib)   ...       0.03
freq.     927.07  E(vib)   ...       0.03
freq.     963.74  E(vib)   ...       0.03
freq.     977.32  E(vib)   ...       0.03
freq.     986.29  E(vib)   ...       0.02
freq.     998.42  E(vib)   ...       0.02
freq.    1006.57  E(vib)   ...       0.02
freq.    1025.81  E(vib)   ...       0.02
freq.    1038.04  E(vib)   ...       0.02
freq.    1063.84  E(vib)   ...       0.02
freq.    1078.30  E(vib)   ...       0.02
freq.    1088.27  E(vib)   ...       0.02
freq.    1110.81  E(vib)   ...       0.01
freq.    1119.46  E(vib)   ...       0.01
freq.    1130.10  E(vib)   ...       0.01
freq.    1137.16  E(vib)   ...       0.01
freq.    1144.70  E(vib)   ...       0.01
freq.    1172.63  E(vib)   ...       0.01
freq.    1183.85  E(vib)   ...       0.01
freq.    1203.75  E(vib)   ...       0.01
freq.    1220.62  E(vib)   ...       0.01
freq.    1233.47  E(vib)   ...       0.01
freq.    1235.84  E(vib)   ...       0.01
freq.    1240.14  E(vib)   ...       0.01
freq.    1248.19  E(vib)   ...       0.01
freq.    1278.27  E(vib)   ...       0.01
freq.    1290.18  E(vib)   ...       0.01
freq.    1299.31  E(vib)   ...       0.01
freq.    1310.36  E(vib)   ...       0.01
freq.    1321.06  E(vib)   ...       0.01
freq.    1325.61  E(vib)   ...       0.01
freq.    1328.13  E(vib)   ...       0.01
freq.    1345.48  E(vib)   ...       0.01
freq.    1349.87  E(vib)   ...       0.01
freq.    1356.84  E(vib)   ...       0.01
freq.    1419.78  E(vib)   ...       0.00
freq.    1429.88  E(vib)   ...       0.00
freq.    1441.26  E(vib)   ...       0.00
freq.    1773.18  E(vib)   ...       0.00
freq.    1808.86  E(vib)   ...       0.00
freq.    2914.01  E(vib)   ...       0.00
freq.    2931.94  E(vib)   ...       0.00
freq.    2963.75  E(vib)   ...       0.00
freq.    2993.21  E(vib)   ...       0.00
freq.    3003.57  E(vib)   ...       0.00
freq.    3005.20  E(vib)   ...       0.00
freq.    3041.54  E(vib)   ...       0.00
freq.    3059.78  E(vib)   ...       0.00
freq.    3270.87  E(vib)   ...       0.00
freq.    3395.15  E(vib)   ...       0.00
freq.    3411.43  E(vib)   ...       0.00
freq.    3418.18  E(vib)   ...       0.00
freq.    3472.15  E(vib)   ...       0.00
freq.    3497.41  E(vib)   ...       0.00
freq.    3526.88  E(vib)   ...       0.00
freq.    3580.40  E(vib)   ...       0.00
freq.    3637.71  E(vib)   ...       0.00

------------
INNER ENERGY
------------

The inner energy is: U= E(el) + E(ZPE) + E(vib) + E(rot) + E(trans)
    E(el)   - is the total energy from the electronic structure calculation
              = E(kin-el) + E(nuc-el) + E(el-el) + E(nuc-nuc)
    E(ZPE)  - the the zero temperature vibrational energy from the frequency calculation
    E(vib)  - the the finite temperature correction to E(ZPE) due to population
              of excited vibrational states
    E(rot)  - is the rotational thermal energy
    E(trans)- is the translational thermal energy

Summary of contributions to the inner energy U:
Electronic energy                ...    -83.48205977 Eh
Zero point energy                ...      0.28519677 Eh     178.96 kcal/mol
Thermal vibrational correction   ...      0.02360968 Eh      14.82 kcal/mol
Thermal rotational correction    ...      0.00141627 Eh       0.89 kcal/mol
Thermal translational correction ...      0.00141627 Eh       0.89 kcal/mol
-----------------------------------------------------------------------
Total thermal energy                    -83.17042078 Eh

Summary of corrections to the electronic energy:
(perhaps to be used in another calculation)
Total thermal correction                  0.02644222 Eh      16.59 kcal/mol
Non-thermal (ZPE) correction              0.28519677 Eh     178.96 kcal/mol
-----------------------------------------------------------------------
Total correction                          0.31163899 Eh     195.56 kcal/mol

Rotational constants in cm-1:     0.014928     0.005421     0.005150

                             ****ORCA TERMINATED NORMALLY****
TOTAL RUN TIME: 0 days 0 hours 9 minutes 59 seconds 889 msec
