                         Program Version 5.0.3 -  RELEASE  -
|  1> ! XTB2 opt numfreq
|  2> * XYZ 0 1
|  3> O -2.7241 0.6009 -2.8695
|  4> C -3.1979 -0.3220 -2.2056
|  5> C -2.6183 -0.7918 -0.8786
|  6> O -2.9841 -2.1789 -0.7626
|  7> C -3.2897 0.0240 0.2342
|  8> O -4.7100 -0.0174 0.1188
|  9> P -5.5425 0.5102 1.3792
| 10> O -5.1736 1.8547 1.8983
| 11> O -5.4401 -0.6626 2.4514
| 12> O -7.0565 0.3935 0.8954
| 13> C -1.0668 -0.6135 -0.8921
| 14> O -0.5161 -1.4887 -1.8761
| 15> O -0.6607 0.7008 -1.2263
| 16> C -0.4886 -1.0571 0.4865
| 17> O -0.4867 -2.2388 0.8442
| 18> C 0.1306 0.0021 1.3702
| 19> C 1.6538 -0.1186 1.4268
| 20> O 2.1353 0.8041 2.4125
| 21> C 2.3652 0.1324 0.0806
| 22> O 1.9742 -0.8408 -0.9033
| 23> C 3.8920 0.0862 0.2299
| 24> O 4.4577 0.2631 -1.0679
| 25> P 5.9959 0.6913 -1.1596
| 26> O 6.5979 0.6841 -2.5208
| 27> O 6.0592 2.1342 -0.4826
| 28> O 6.7785 -0.2255 -0.1180
| 29> H -4.1354 -0.8136 -2.5199
| 30> H -2.2631 -2.6958 -1.1797
| 31> H -3.0191 -0.3841 1.2138
| 32> H -2.9812 1.0742 0.1925
| 33> H -5.9083 -0.4356 3.2740
| 34> H -7.3085 1.1452 0.3304
| 35> H 0.4416 -1.5239 -1.6585
| 36> H -1.1312 0.9225 -2.0603
| 37> H -0.1769 1.0084 1.0706
| 38> H -0.2899 -0.1253 2.3762
| 39> H 1.9113 -1.1261 1.7757
| 40> H 1.8079 1.6941 2.1928
| 41> H 2.0851 1.1161 -0.3156
| 42> H 2.6587 -0.7702 -1.6041
| 43> H 4.2463 0.8688 0.9070
| 44> H 4.2124 -0.8918 0.6026
| 45> H 6.0297 2.8313 -1.1638
| 46> H 7.7361 -0.2202 -0.2985
| 47> *
| 48>
| 49>                          ****END OF INPUT****
FINAL SINGLE POINT ENERGY       -94.734567447160
FINAL SINGLE POINT ENERGY       -94.749391877890
FINAL SINGLE POINT ENERGY       -94.751773741790
FINAL SINGLE POINT ENERGY       -94.751956317010
FINAL SINGLE POINT ENERGY       -94.754699535750
FINAL SINGLE POINT ENERGY       -94.755983416270
FINAL SINGLE POINT ENERGY       -94.756568783780
FINAL SINGLE POINT ENERGY       -94.757172626920
FINAL SINGLE POINT ENERGY       -94.757641131950
FINAL SINGLE POINT ENERGY       -94.758035929890
FINAL SINGLE POINT ENERGY       -94.771515911360
FINAL SINGLE POINT ENERGY       -94.771625782890
FINAL SINGLE POINT ENERGY       -94.771682043600
FINAL SINGLE POINT ENERGY       -94.771695967480
FINAL SINGLE POINT ENERGY       -94.771709375710
FINAL SINGLE POINT ENERGY       -94.771714747890
FINAL SINGLE POINT ENERGY       -94.771718611820
FINAL SINGLE POINT ENERGY       -94.771720825010
FINAL SINGLE POINT ENERGY       -94.771721967480
                    ***********************HURRAY********************

CARTESIAN COORDINATES (ANGSTROEM)
---------------------------------
  O    -3.394945    0.133252   -1.980839
  C    -3.132471   -0.943460   -1.521975
  C    -2.607211   -1.224087   -0.121589
  O    -2.910024   -2.548512    0.226435
  C    -3.282737   -0.335850    0.952813
  O    -4.173951    0.629387    0.448759
  P    -3.660413    2.023836   -0.130957
  O    -2.216196    2.177301   -0.391091
  O    -4.167068    2.999424    1.019601
  O    -4.641154    2.397559   -1.304988
  C    -1.035913   -0.967328   -0.227799
  O    -0.771426   -1.015602   -1.606601
  O    -0.635590    0.219257    0.339242
  C    -0.255785   -2.128433    0.441648
  O    -0.337473   -3.240221   -0.017444
  C     0.607128   -1.787510    1.621198
  C     2.099501   -1.684640    1.230379
  O     2.876167   -1.415279    2.364759
  C     2.316365   -0.628510    0.126470
  O     1.927833   -1.187932   -1.114908
  C     3.785974   -0.203055    0.044111
  O     3.974766    0.598544   -1.113408
  P     3.802205    2.180306   -1.023036
  O     4.003950    2.858658   -2.294503
  O     2.378326    2.387054   -0.335650
  O     4.803815    2.615499    0.150079
  H    -3.285362   -1.868940   -2.103987
  H    -2.327798   -3.158354   -0.255149
  H    -3.889000   -1.008822    1.565970
  H    -2.515395    0.135510    1.573278
  H    -3.833157    3.885695    0.892865
  H    -4.426353    1.885899   -2.087858
  H     0.199814   -1.051631   -1.718437
  H    -1.128814    0.982204   -0.059957
  H     0.287057   -0.840732    2.054708
  H     0.517193   -2.593128    2.352207
  H     2.444904   -2.652118    0.851609
  H     2.557577   -0.601292    2.774343
  H     1.699007    0.256271    0.335048
  H     2.444787   -0.735386   -1.798094
  H     4.087208    0.340939    0.939509
  H     4.422561   -1.083228   -0.083861
  H     1.878031    3.063984   -0.788526
  H     5.514168    3.133370   -0.224173

FINAL SINGLE POINT ENERGY       -94.771722638680

VIBRATIONAL FREQUENCIES
-----------------------

Scaling factor for frequencies =  1.000000000 (already applied!)

   0:         0.00 cm**-1
   1:         0.00 cm**-1
   2:         0.00 cm**-1
   3:         0.00 cm**-1
   4:         0.00 cm**-1
   5:         0.00 cm**-1
   6:         5.93 cm**-1
   7:         9.33 cm**-1
   8:        21.60 cm**-1
   9:        32.40 cm**-1
  10:        38.07 cm**-1
  11:        51.76 cm**-1
  12:        61.51 cm**-1
  13:        68.88 cm**-1
  14:        82.67 cm**-1
  15:       106.39 cm**-1
  16:       115.98 cm**-1
  17:       124.95 cm**-1
  18:       137.63 cm**-1
  19:       158.57 cm**-1
  20:       163.22 cm**-1
  21:       168.46 cm**-1
  22:       177.41 cm**-1
  23:       180.43 cm**-1
  24:       187.52 cm**-1
  25:       203.15 cm**-1
  26:       221.29 cm**-1
  27:       242.01 cm**-1
  28:       253.12 cm**-1
  29:       255.89 cm**-1
  30:       266.41 cm**-1
  31:       277.45 cm**-1
  32:       309.51 cm**-1
  33:       319.79 cm**-1
  34:       326.12 cm**-1
  35:       334.98 cm**-1
  36:       338.95 cm**-1
  37:       365.03 cm**-1
  38:       370.92 cm**-1
  39:       374.40 cm**-1
  40:       381.69 cm**-1
  41:       383.34 cm**-1
  42:       397.66 cm**-1
  43:       413.37 cm**-1
  44:       417.21 cm**-1
  45:       423.25 cm**-1
  46:       429.93 cm**-1
  47:       437.58 cm**-1
  48:       438.91 cm**-1
  49:       447.97 cm**-1
  50:       467.38 cm**-1
  51:       473.84 cm**-1
  52:       484.54 cm**-1
  53:       498.42 cm**-1
  54:       503.71 cm**-1
  55:       526.26 cm**-1
  56:       577.02 cm**-1
  57:       583.49 cm**-1
  58:       615.12 cm**-1
  59:       617.45 cm**-1
  60:       700.68 cm**-1
  61:       732.46 cm**-1
  62:       745.59 cm**-1
  63:       750.00 cm**-1
  64:       789.17 cm**-1
  65:       810.52 cm**-1
  66:       822.65 cm**-1
  67:       833.26 cm**-1
  68:       838.75 cm**-1
  69:       859.91 cm**-1
  70:       867.12 cm**-1
  71:       878.82 cm**-1
  72:       899.53 cm**-1
  73:       904.96 cm**-1
  74:       921.01 cm**-1
  75:       924.40 cm**-1
  76:       940.78 cm**-1
  77:       943.30 cm**-1
  78:       985.93 cm**-1
  79:      1021.32 cm**-1
  80:      1037.60 cm**-1
  81:      1044.56 cm**-1
  82:      1067.10 cm**-1
  83:      1080.30 cm**-1
  84:      1086.38 cm**-1
  85:      1095.81 cm**-1
  86:      1106.25 cm**-1
  87:      1107.18 cm**-1
  88:      1116.87 cm**-1
  89:      1129.92 cm**-1
  90:      1156.60 cm**-1
  91:      1171.06 cm**-1
  92:      1180.87 cm**-1
  93:      1212.12 cm**-1
  94:      1212.70 cm**-1
  95:      1239.91 cm**-1
  96:      1241.43 cm**-1
  97:      1257.81 cm**-1
  98:      1274.23 cm**-1
  99:      1282.13 cm**-1
 100:      1283.70 cm**-1
 101:      1295.34 cm**-1
 102:      1301.49 cm**-1
 103:      1320.42 cm**-1
 104:      1324.64 cm**-1
 105:      1327.01 cm**-1
 106:      1331.09 cm**-1
 107:      1347.19 cm**-1
 108:      1357.44 cm**-1
 109:      1429.42 cm**-1
 110:      1434.81 cm**-1
 111:      1444.37 cm**-1
 112:      1757.47 cm**-1
 113:      1778.77 cm**-1
 114:      2808.92 cm**-1
 115:      2907.56 cm**-1
 116:      2941.42 cm**-1
 117:      2958.61 cm**-1
 118:      2963.61 cm**-1
 119:      2965.23 cm**-1
 120:      2986.55 cm**-1
 121:      2989.98 cm**-1
 122:      2996.50 cm**-1
 123:      3013.23 cm**-1
 124:      3271.04 cm**-1
 125:      3407.56 cm**-1
 126:      3451.88 cm**-1
 127:      3515.78 cm**-1
 128:      3560.15 cm**-1
 129:      3625.05 cm**-1
 130:      3632.22 cm**-1
 131:      3637.96 cm**-1

IR SPECTRUM
-----------

 Mode   freq       eps      Int      T**2         TX        TY        TZ
       cm**-1   L/(mol*cm) km/mol    a.u.
----------------------------------------------------------------------------
  6:      5.93   0.000480    2.43  0.025281  (-0.141044 -0.049702 -0.054009)
  7:      9.33   0.000403    2.04  0.013494  (-0.002128 -0.037066 -0.110073)
  8:     21.60   0.000156    0.79  0.002251  (-0.037398 -0.010083 -0.027395)
  9:     32.40   0.000554    2.80  0.005332  (-0.057047  0.005308 -0.045276)
 10:     38.07   0.000237    1.20  0.001944  ( 0.040508  0.017275 -0.002083)
 11:     51.76   0.000838    4.23  0.005052  (-0.011876 -0.066709 -0.021463)
 12:     61.51   0.000364    1.84  0.001845  (-0.018873 -0.011792 -0.036735)
 13:     68.88   0.000201    1.02  0.000911  (-0.023524 -0.018655  0.003094)
 14:     82.67   0.010702   54.08  0.040400  ( 0.179925 -0.011464  0.088855)
 15:    106.39   0.000534    2.70  0.001566  (-0.026583 -0.023776 -0.017146)
 16:    115.98   0.002672   13.50  0.007189  (-0.071415  0.014325 -0.043398)
 17:    124.95   0.002851   14.41  0.007119  ( 0.062311 -0.025926 -0.050642)
 18:    137.63   0.003275   16.55  0.007425  ( 0.066490  0.027101  0.047642)
 19:    158.57   0.000900    4.55  0.001771  ( 0.018378 -0.017298  0.033669)
 20:    163.22   0.000805    4.07  0.001540  ( 0.007227  0.035842 -0.014240)
 21:    168.46   0.008451   42.71  0.015656  (-0.101892  0.026450 -0.067631)
 22:    177.41   0.001846    9.33  0.003247  ( 0.035946 -0.036268 -0.025283)
 23:    180.43   0.005921   29.92  0.010241  (-0.077727  0.053014 -0.037270)
 24:    187.52   0.006221   31.44  0.010353  ( 0.026030  0.086120  0.047523)
 25:    203.15   0.008459   42.75  0.012994  ( 0.067832 -0.084109 -0.036315)
 26:    221.29   0.002804   14.17  0.003954  ( 0.059255 -0.003867  0.020676)
 27:    242.01   0.009857   49.81  0.012710  (-0.019054  0.108575  0.023624)
 28:    253.12   0.011250   56.85  0.013870  (-0.035602  0.100841  0.049332)
 29:    255.89   0.000034    0.17  0.000042  ( 0.005283  0.002417  0.002803)
 30:    266.41   0.004228   21.36  0.004952  ( 0.062662 -0.013371  0.029099)
 31:    277.45   0.000495    2.50  0.000556  (-0.003373 -0.006651  0.022374)
 32:    309.51   0.003565   18.02  0.003595  ( 0.044600  0.019660  0.034917)
 33:    319.79   0.005678   28.69  0.005541  ( 0.068156 -0.027149  0.012592)
 34:    326.12   0.004646   23.48  0.004445  ( 0.002174 -0.059734 -0.029539)
 35:    334.98   0.005715   28.88  0.005324  ( 0.031569  0.028494  0.059292)
 36:    338.95   0.005025   25.39  0.004626  ( 0.033160  0.037560  0.046001)
 37:    365.03   0.007057   35.66  0.006033  ( 0.003818  0.052891 -0.056752)
 38:    370.92   0.003997   20.20  0.003363  ( 0.007612  0.052104 -0.024291)
 39:    374.40   0.005735   28.98  0.004780  (-0.062220 -0.025685  0.015788)
 40:    381.69   0.008948   45.22  0.007316  (-0.046027  0.028350  0.066282)
 41:    383.34   0.004443   22.45  0.003617  (-0.006738  0.037324 -0.046673)
 42:    397.66   0.009919   50.13  0.007784  (-0.079673 -0.037807 -0.002560)
 43:    413.37   0.028354  143.29  0.021405  ( 0.114307  0.090393 -0.012972)
 44:    417.21   0.006407   32.38  0.004792  (-0.049069 -0.026110 -0.041267)
 45:    423.25   0.015398   77.81  0.011353  ( 0.022436  0.084677  0.060657)
 46:    429.93   0.006129   30.97  0.004449  (-0.046225 -0.048077  0.000724)
 47:    437.58   0.017122   86.53  0.012210  ( 0.073533  0.004973  0.082332)
 48:    438.91   0.031942  161.42  0.022711  ( 0.149284  0.020209  0.004070)
 49:    447.97   0.013976   70.63  0.009736  ( 0.020826 -0.016448 -0.095036)
 50:    467.38   0.010301   52.06  0.006878  (-0.066960  0.038232 -0.030538)
 51:    473.84   0.034469  174.19  0.022701  (-0.023302 -0.142874  0.041772)
 52:    484.54   0.003471   17.54  0.002236  ( 0.045407  0.013058  0.001808)
 53:    498.42   0.012215   61.73  0.007648  ( 0.039229 -0.034864 -0.069952)
 54:    503.71   0.003708   18.74  0.002297  (-0.023939  0.030861 -0.027781)
 55:    526.26   0.004734   23.92  0.002807  (-0.048758  0.017479 -0.011142)
 56:    577.02   0.008075   40.81  0.004367  (-0.040716 -0.051961  0.003090)
 57:    583.49   0.040550  204.92  0.021687  ( 0.083065 -0.121228 -0.009541)
 58:    615.12   0.006066   30.65  0.003077  ( 0.053557 -0.014404  0.001210)
 59:    617.45   0.005601   28.31  0.002831  ( 0.013273 -0.050673  0.009329)
 60:    700.68   0.001632    8.25  0.000727  (-0.009815  0.017449  0.018058)
 61:    732.46   0.003441   17.39  0.001466  ( 0.008911  0.031031  0.020583)
 62:    745.59   0.013170   66.55  0.005512  ( 0.036655  0.059217 -0.025728)
 63:    750.00   0.013140   66.41  0.005467  (-0.009433 -0.072362 -0.011926)
 64:    789.17   0.069243  349.92  0.027381  ( 0.155379  0.003375 -0.056804)
 65:    810.52   0.051481  260.17  0.019821  (-0.001322 -0.119072 -0.075107)
 66:    822.65   0.038539  194.76  0.014619  (-0.040330 -0.108424 -0.035171)
 67:    833.26   0.008518   43.04  0.003190  (-0.009238 -0.028758 -0.047724)
 68:    838.75   0.062397  315.33  0.023215  (-0.146958  0.029850 -0.026975)
 69:    859.91   0.022381  113.11  0.008122  ( 0.070908  0.052650  0.017951)
 70:    867.12   0.016757   84.68  0.006030  ( 0.012780  0.028216  0.071211)
 71:    878.82   0.009484   47.93  0.003368  ( 0.004250 -0.057853  0.001588)
 72:    899.53   0.006141   31.03  0.002130  ( 0.015115 -0.006378 -0.043142)
 73:    904.96   0.056024  283.12  0.019319  ( 0.049153 -0.023619 -0.127849)
 74:    921.01   0.034990  176.83  0.011856  ( 0.019553 -0.004210 -0.107031)
 75:    924.40   0.000466    2.36  0.000157  ( 0.011115 -0.001675 -0.005578)
 76:    940.78   0.108729  549.47  0.036066  ( 0.114007 -0.127057  0.083218)
 77:    943.30   0.007155   36.16  0.002367  (-0.018338 -0.006858 -0.044538)
 78:    985.93   0.012133   61.32  0.003840  ( 0.003808 -0.007698  0.061372)
 79:   1021.32   0.018629   94.14  0.005692  ( 0.004333  0.073187 -0.017808)
 80:   1037.60   0.012977   65.58  0.003903  ( 0.028600  0.027575  0.048213)
 81:   1044.56   0.019816  100.14  0.005920  (-0.054359 -0.052885  0.012981)
 82:   1067.10   0.009920   50.13  0.002901  (-0.048835 -0.017509 -0.014477)
 83:   1080.30   0.013409   67.76  0.003873  (-0.016149 -0.052214  0.029769)
 84:   1086.38   0.017221   87.03  0.004947  (-0.017810  0.031660 -0.060226)
 85:   1095.81   0.035740  180.62  0.010178  (-0.026780  0.047383 -0.084945)
 86:   1106.25   0.013013   65.76  0.003671  ( 0.051481 -0.018918  0.025741)
 87:   1107.18   0.025720  129.98  0.007249  (-0.043250  0.072747 -0.009307)
 88:   1116.87   0.011189   56.54  0.003126  (-0.036278 -0.009429  0.041487)
 89:   1129.92   0.018958   95.80  0.005236  (-0.002678 -0.067179 -0.026751)
 90:   1156.60   0.013582   68.64  0.003665  ( 0.054811 -0.022301 -0.012772)
 91:   1171.06   0.003870   19.56  0.001031  ( 0.014004 -0.021153  0.019691)
 92:   1180.87   0.018324   92.60  0.004842  ( 0.025594  0.031536  0.056506)
 93:   1212.12   0.094256  476.33  0.024267  (-0.155770  0.001091  0.001053)
 94:   1212.70   0.008235   41.62  0.002119  ( 0.012560 -0.016306 -0.041176)
 95:   1239.91   0.009120   46.09  0.002295  (-0.045531 -0.012114  0.008688)
 96:   1241.43   0.018061   91.27  0.004540  (-0.064232 -0.017699 -0.010051)
 97:   1257.81   0.007792   39.38  0.001933  ( 0.009058  0.041814 -0.010136)
 98:   1274.23   0.008789   44.42  0.002153  (-0.019211  0.007285 -0.041598)
 99:   1282.13   0.054147  273.64  0.013179  ( 0.097177  0.055096  0.026460)
100:   1283.70   0.011819   59.73  0.002873  ( 0.012493  0.029339 -0.043086)
101:   1295.34   0.000410    2.07  0.000099  ( 0.007818 -0.000962 -0.006054)
102:   1301.49   0.074736  377.68  0.017920  (-0.006009 -0.056597  0.121163)
103:   1320.42   0.000146    0.74  0.000035  ( 0.001868  0.002655  0.004897)
104:   1324.64   0.024304  122.82  0.005726  (-0.034337 -0.005835 -0.067175)
105:   1327.01   0.034340  173.54  0.008076  (-0.043884 -0.036648 -0.069331)
106:   1331.09   0.009379   47.40  0.002199  (-0.032916  0.010590 -0.031673)
107:   1347.19   0.004000   20.22  0.000927  (-0.005696 -0.012151 -0.027323)
108:   1357.44   0.002477   12.52  0.000569  ( 0.010225 -0.013640  0.016695)
109:   1429.42   0.001073    5.42  0.000234  (-0.013448 -0.005282  0.005059)
110:   1434.81   0.000389    1.97  0.000085  (-0.004727 -0.007874 -0.000581)
111:   1444.37   0.002476   12.51  0.000535  ( 0.022207  0.000732  0.006424)
112:   1757.47   0.048311  244.15  0.008578  ( 0.006524  0.090305  0.019513)
113:   1778.77   0.051703  261.29  0.009071  ( 0.046990 -0.057908  0.059240)
114:   2808.92   0.008899   44.97  0.000989  (-0.009351 -0.029831 -0.003371)
115:   2907.56   0.000231    1.17  0.000025  ( 0.004707 -0.000842  0.001397)
116:   2941.42   0.000793    4.01  0.000084  (-0.008863  0.001809 -0.001531)
117:   2958.61   0.000211    1.07  0.000022  (-0.004013  0.002402  0.000654)
118:   2963.61   0.006550   33.10  0.000690  (-0.025954  0.003997  0.000417)
119:   2965.23   0.000036    0.18  0.000004  (-0.001369 -0.000806  0.001143)
120:   2986.55   0.005568   28.14  0.000582  ( 0.008928 -0.022277  0.002411)
121:   2989.98   0.002857   14.44  0.000298  (-0.014831 -0.002919 -0.008347)
122:   2996.50   0.180232  910.82  0.018770  ( 0.081183 -0.107327  0.025692)
123:   3013.23   0.017118   86.51  0.001773  (-0.030981  0.028201 -0.004206)
124:   3271.04   0.093704  473.54  0.008940  ( 0.093879  0.001387 -0.011149)
125:   3407.56   0.015961   80.66  0.001462  (-0.025521  0.019717  0.020533)
126:   3451.88   0.012282   62.07  0.001110  ( 0.008392  0.024788 -0.020626)
127:   3515.78   0.002102   10.62  0.000187  ( 0.001897 -0.013283 -0.002560)
128:   3560.15   0.017106   86.45  0.001499  ( 0.010510 -0.010149 -0.035860)
129:   3625.05   0.011276   56.99  0.000971  (-0.020192  0.014431 -0.018835)
130:   3632.22   0.009927   50.17  0.000853  (-0.002116 -0.028369  0.006603)
131:   3637.96   0.025387  128.30  0.002178  (-0.015565 -0.035750  0.025639)

--------------------------
THERMOCHEMISTRY AT 298.15K
--------------------------

Temperature         ... 298.15 K
Pressure            ... 1.00 atm
Total Mass          ... 428.18 AMU

Throughout the following assumptions are being made:
  (1) The electronic state is orbitally nondegenerate
  (2) There are no thermally accessible electronically excited states
  (3) Hindered rotations indicated by low frequency modes are not
      treated as such but are treated as vibrations and this may
      cause some error
  (4) All equations used are the standard statistical mechanics
      equations for an ideal gas
  (5) All vibrations are strictly harmonic

freq.       5.93  E(vib)   ...       0.58
freq.       9.33  E(vib)   ...       0.58
freq.      21.60  E(vib)   ...       0.56
freq.      32.40  E(vib)   ...       0.55
freq.      38.07  E(vib)   ...       0.54
freq.      51.76  E(vib)   ...       0.52
freq.      61.51  E(vib)   ...       0.51
freq.      68.88  E(vib)   ...       0.50
freq.      82.67  E(vib)   ...       0.48
freq.     106.39  E(vib)   ...       0.45
freq.     115.98  E(vib)   ...       0.44
freq.     124.95  E(vib)   ...       0.43
freq.     137.63  E(vib)   ...       0.42
freq.     158.57  E(vib)   ...       0.39
freq.     163.22  E(vib)   ...       0.39
freq.     168.46  E(vib)   ...       0.38
freq.     177.41  E(vib)   ...       0.37
freq.     180.43  E(vib)   ...       0.37
freq.     187.52  E(vib)   ...       0.36
freq.     203.15  E(vib)   ...       0.35
freq.     221.29  E(vib)   ...       0.33
freq.     242.01  E(vib)   ...       0.31
freq.     253.12  E(vib)   ...       0.30
freq.     255.89  E(vib)   ...       0.30
freq.     266.41  E(vib)   ...       0.29
freq.     277.45  E(vib)   ...       0.28
freq.     309.51  E(vib)   ...       0.26
freq.     319.79  E(vib)   ...       0.25
freq.     326.12  E(vib)   ...       0.24
freq.     334.98  E(vib)   ...       0.24
freq.     338.95  E(vib)   ...       0.23
freq.     365.03  E(vib)   ...       0.22
freq.     370.92  E(vib)   ...       0.21
freq.     374.40  E(vib)   ...       0.21
freq.     381.69  E(vib)   ...       0.21
freq.     383.34  E(vib)   ...       0.20
freq.     397.66  E(vib)   ...       0.20
freq.     413.37  E(vib)   ...       0.19
freq.     417.21  E(vib)   ...       0.18
freq.     423.25  E(vib)   ...       0.18
freq.     429.93  E(vib)   ...       0.18
freq.     437.58  E(vib)   ...       0.17
freq.     438.91  E(vib)   ...       0.17
freq.     447.97  E(vib)   ...       0.17
freq.     467.38  E(vib)   ...       0.16
freq.     473.84  E(vib)   ...       0.15
freq.     484.54  E(vib)   ...       0.15
freq.     498.42  E(vib)   ...       0.14
freq.     503.71  E(vib)   ...       0.14
freq.     526.26  E(vib)   ...       0.13
freq.     577.02  E(vib)   ...       0.11
freq.     583.49  E(vib)   ...       0.11
freq.     615.12  E(vib)   ...       0.10
freq.     617.45  E(vib)   ...       0.09
freq.     700.68  E(vib)   ...       0.07
freq.     732.46  E(vib)   ...       0.06
freq.     745.59  E(vib)   ...       0.06
freq.     750.00  E(vib)   ...       0.06
freq.     789.17  E(vib)   ...       0.05
freq.     810.52  E(vib)   ...       0.05
freq.     822.65  E(vib)   ...       0.05
freq.     833.26  E(vib)   ...       0.04
freq.     838.75  E(vib)   ...       0.04
freq.     859.91  E(vib)   ...       0.04
freq.     867.12  E(vib)   ...       0.04
freq.     878.82  E(vib)   ...       0.04
freq.     899.53  E(vib)   ...       0.03
freq.     904.96  E(vib)   ...       0.03
freq.     921.01  E(vib)   ...       0.03
freq.     924.40  E(vib)   ...       0.03
freq.     940.78  E(vib)   ...       0.03
freq.     943.30  E(vib)   ...       0.03
freq.     985.93  E(vib)   ...       0.02
freq.    1021.32  E(vib)   ...       0.02
freq.    1037.60  E(vib)   ...       0.02
freq.    1044.56  E(vib)   ...       0.02
freq.    1067.10  E(vib)   ...       0.02
freq.    1080.30  E(vib)   ...       0.02
freq.    1086.38  E(vib)   ...       0.02
freq.    1095.81  E(vib)   ...       0.02
freq.    1106.25  E(vib)   ...       0.02
freq.    1107.18  E(vib)   ...       0.02
freq.    1116.87  E(vib)   ...       0.01
freq.    1129.92  E(vib)   ...       0.01
freq.    1156.60  E(vib)   ...       0.01
freq.    1171.06  E(vib)   ...       0.01
freq.    1180.87  E(vib)   ...       0.01
freq.    1212.12  E(vib)   ...       0.01
freq.    1212.70  E(vib)   ...       0.01
freq.    1239.91  E(vib)   ...       0.01
freq.    1241.43  E(vib)   ...       0.01
freq.    1257.81  E(vib)   ...       0.01
freq.    1274.23  E(vib)   ...       0.01
freq.    1282.13  E(vib)   ...       0.01
freq.    1283.70  E(vib)   ...       0.01
freq.    1295.34  E(vib)   ...       0.01
freq.    1301.49  E(vib)   ...       0.01
freq.    1320.42  E(vib)   ...       0.01
freq.    1324.64  E(vib)   ...       0.01
freq.    1327.01  E(vib)   ...       0.01
freq.    1331.09  E(vib)   ...       0.01
freq.    1347.19  E(vib)   ...       0.01
freq.    1357.44  E(vib)   ...       0.01
freq.    1429.42  E(vib)   ...       0.00
freq.    1434.81  E(vib)   ...       0.00
freq.    1444.37  E(vib)   ...       0.00
freq.    1757.47  E(vib)   ...       0.00
freq.    1778.77  E(vib)   ...       0.00
freq.    2808.92  E(vib)   ...       0.00
freq.    2907.56  E(vib)   ...       0.00
freq.    2941.42  E(vib)   ...       0.00
freq.    2958.61  E(vib)   ...       0.00
freq.    2963.61  E(vib)   ...       0.00
freq.    2965.23  E(vib)   ...       0.00
freq.    2986.55  E(vib)   ...       0.00
freq.    2989.98  E(vib)   ...       0.00
freq.    2996.50  E(vib)   ...       0.00
freq.    3013.23  E(vib)   ...       0.00
freq.    3271.04  E(vib)   ...       0.00
freq.    3407.56  E(vib)   ...       0.00
freq.    3451.88  E(vib)   ...       0.00
freq.    3515.78  E(vib)   ...       0.00
freq.    3560.15  E(vib)   ...       0.00
freq.    3625.05  E(vib)   ...       0.00
freq.    3632.22  E(vib)   ...       0.00
freq.    3637.96  E(vib)   ...       0.00

------------
INNER ENERGY
------------

The inner energy is: U= E(el) + E(ZPE) + E(vib) + E(rot) + E(trans)
    E(el)   - is the total energy from the electronic structure calculation
              = E(kin-el) + E(nuc-el) + E(el-el) + E(nuc-nuc)
    E(ZPE)  - the the zero temperature vibrational energy from the frequency calculation
    E(vib)  - the the finite temperature correction to E(ZPE) due to population
              of excited vibrational states
    E(rot)  - is the rotational thermal energy
    E(trans)- is the translational thermal energy

Summary of contributions to the inner energy U:
Electronic energy                ...    -94.77172264 Eh
Zero point energy                ...      0.30415201 Eh     190.86 kcal/mol
Thermal vibrational correction   ...      0.02733865 Eh      17.16 kcal/mol

Rotational constants in cm-1:     0.008472     0.003670     0.002968

                             ****ORCA TERMINATED NORMALLY****
TOTAL RUN TIME: 0 days 0 hours 11 minutes 24 seconds 594 msec
