                         Program Version 5.0.3 -  RELEASE  -
|  1> ! XTB2 opt numfreq
|  2> * XYZ 0 1
|  3> O -3.9309 1.5928 1.3205
|  4> C -2.8859 0.9373 1.2692
|  5> C -2.4725 0.0978 0.0529
|  6> O -2.9453 0.7612 -1.1295
|  7> C -3.2187 -1.2465 0.2097
|  8> O -4.6170 -1.0303 0.0018
|  9> P -5.6618 -1.3470 1.1708
| 10> O -7.0967 -1.1035 0.8633
| 11> O -5.3420 -2.8556 1.5824
| 12> O -5.1141 -0.5350 2.4287
| 13> C -0.9173 -0.0302 0.0226
| 14> O -0.4778 -0.5596 1.2816
| 15> C -0.2439 1.3471 -0.2257
| 16> C 1.2174 1.5351 0.2281
| 17> O 1.6254 2.8608 -0.1375
| 18> C 2.2332 0.5150 -0.3136
| 19> O 1.9574 -0.7896 0.2215
| 20> C 3.6739 0.8877 0.0588
| 21> O 4.5238 -0.1438 -0.4321
| 22> P 6.0996 0.1159 -0.3632
| 23> O 6.6428 0.5923 0.9373
| 24> O 6.7610 -1.2386 -0.8777
| 25> O 6.3975 1.1221 -1.5635
| 26> C -0.5451 -0.9768 -1.1450
| 27> O -0.2928 -0.6690 -2.2984
| 28> O -0.4750 -2.2734 -0.7685
| 29> H -2.2420 0.8647 2.1626
| 30> H -3.9237 0.7465 -1.0724
| 31> H -3.0258 -1.7097 1.1833
| 32> H -2.9310 -1.9535 -0.5713
| 33> H -6.0555 -3.2079 2.1442
| 34> H -5.2390 0.4313 2.2921
| 35> H 0.4150 -0.9443 1.1126
| 36> H -0.3322 1.6276 -1.2843
| 37> H -0.8109 2.1276 0.2999
| 38> H 1.2358 1.4957 1.3244
| 39> H 1.3623 3.0211 -1.0626
| 40> H 2.1592 0.4446 -1.4050
| 41> H 2.7487 -1.3239 -0.0046
| 42> H 3.7925 0.9339 1.1463
| 43> H 3.9673 1.8451 -0.3827
| 44> H 7.7162 -1.2607 -0.6890
| 45> H 6.4649 2.0423 -1.2499
| 46> H -0.1972 -2.7468 -1.5815
| 47> *
| 48>
| 49>                          ****END OF INPUT****
FINAL SINGLE POINT ENERGY       -94.753079050610
FINAL SINGLE POINT ENERGY       -94.768589347890
FINAL SINGLE POINT ENERGY       -94.772117561960
FINAL SINGLE POINT ENERGY       -94.775114624980
FINAL SINGLE POINT ENERGY       -94.776087410940
FINAL SINGLE POINT ENERGY       -94.776980897210
FINAL SINGLE POINT ENERGY       -94.777159837540
FINAL SINGLE POINT ENERGY       -94.777739297650
FINAL SINGLE POINT ENERGY       -94.777986486210
FINAL SINGLE POINT ENERGY       -94.778431179850
FINAL SINGLE POINT ENERGY       -94.790871031480
FINAL SINGLE POINT ENERGY       -94.790700425600
FINAL SINGLE POINT ENERGY       -94.790891880910
FINAL SINGLE POINT ENERGY       -94.790898163650
FINAL SINGLE POINT ENERGY       -94.790913077540
FINAL SINGLE POINT ENERGY       -94.790918838870
FINAL SINGLE POINT ENERGY       -94.790923278970
FINAL SINGLE POINT ENERGY       -94.790928587150
FINAL SINGLE POINT ENERGY       -94.790931373450
                    ***********************HURRAY********************

CARTESIAN COORDINATES (ANGSTROEM)
---------------------------------
  O    -3.955853    1.556191    0.238439
  C    -2.999580    0.970463    0.668707
  C    -2.258697   -0.079598   -0.140364
  O    -2.539797    0.043346   -1.502307
  C    -2.768423   -1.440830    0.403255
  O    -4.168370   -1.522389    0.204227
  P    -5.165401   -1.557362    1.437356
  O    -6.567171   -1.641764    1.054276
  O    -4.599541   -2.760533    2.319915
  O    -4.797741   -0.299117    2.362360
  C    -0.727852    0.082992    0.091610
  O    -0.502539   -0.105493    1.459549
  C    -0.311730    1.483593   -0.406635
  C     1.066464    1.965776    0.068539
  O     1.311383    3.257708   -0.425978
  C     2.200073    0.989422   -0.326697
  O     2.028271   -0.181578    0.433594
  C     3.577719    1.619245   -0.081577
  O     4.573606    1.070654   -0.937435
  P     5.149527   -0.380277   -0.672773
  O     4.170552   -1.471675   -0.513809
  O     6.146835   -0.564111   -1.883423
  O     6.103671   -0.191641    0.576954
  C     0.000252   -0.970073   -0.760354
  O     0.402658   -0.782899   -1.876151
  O     0.091376   -2.146549   -0.142234
  H    -2.610004    1.111469    1.686965
  H    -3.457755    0.348176   -1.579102
  H    -2.501278   -1.546752    1.454797
  H    -2.318201   -2.246491   -0.179253
  H    -5.328464   -3.199201    2.754534
  H    -5.405133    0.418706    2.184762
  H     0.446884   -0.277197    1.565822
  H    -0.332107    1.449761   -1.498161
  H    -1.045831    2.216893   -0.066817
  H     1.071495    2.065039    1.159280
  H     1.178435    3.250690   -1.382253
  H     2.119501    0.761948   -1.401452
  H     2.714549   -0.823796    0.150239
  H     3.859177    1.483906    0.965952
  H     3.544234    2.685662   -0.316403
  H     5.692305   -0.839414   -2.677906
  H     6.321565   -1.031356    0.979130
  H     0.590739   -2.771746   -0.692577

FINAL SINGLE POINT ENERGY       -94.790933319180

VIBRATIONAL FREQUENCIES
-----------------------

Scaling factor for frequencies =  1.000000000 (already applied!)

   0:         0.00 cm**-1
   1:         0.00 cm**-1
   2:         0.00 cm**-1
   3:         0.00 cm**-1
   4:         0.00 cm**-1
   5:         0.00 cm**-1
   6:        14.53 cm**-1
   7:        25.17 cm**-1
   8:        27.65 cm**-1
   9:        28.46 cm**-1
  10:        40.97 cm**-1
  11:        53.31 cm**-1
  12:        62.14 cm**-1
  13:        74.55 cm**-1
  14:        83.89 cm**-1
  15:        96.27 cm**-1
  16:       106.85 cm**-1
  17:       120.30 cm**-1
  18:       131.40 cm**-1
  19:       140.44 cm**-1
  20:       145.88 cm**-1
  21:       159.17 cm**-1
  22:       160.59 cm**-1
  23:       181.27 cm**-1
  24:       196.24 cm**-1
  25:       201.33 cm**-1
  26:       205.64 cm**-1
  27:       214.26 cm**-1
  28:       225.23 cm**-1
  29:       234.28 cm**-1
  30:       247.86 cm**-1
  31:       265.87 cm**-1
  32:       274.44 cm**-1
  33:       284.80 cm**-1
  34:       306.53 cm**-1
  35:       320.70 cm**-1
  36:       340.61 cm**-1
  37:       346.47 cm**-1
  38:       352.36 cm**-1
  39:       358.33 cm**-1
  40:       359.71 cm**-1
  41:       368.04 cm**-1
  42:       374.52 cm**-1
  43:       390.64 cm**-1
  44:       404.53 cm**-1
  45:       410.78 cm**-1
  46:       414.77 cm**-1
  47:       423.69 cm**-1
  48:       430.76 cm**-1
  49:       456.30 cm**-1
  50:       475.41 cm**-1
  51:       483.35 cm**-1
  52:       498.16 cm**-1
  53:       511.60 cm**-1
  54:       535.85 cm**-1
  55:       540.66 cm**-1
  56:       566.09 cm**-1
  57:       584.77 cm**-1
  58:       603.97 cm**-1
  59:       662.24 cm**-1
  60:       735.98 cm**-1
  61:       752.83 cm**-1
  62:       761.24 cm**-1
  63:       766.54 cm**-1
  64:       782.78 cm**-1
  65:       822.05 cm**-1
  66:       827.49 cm**-1
  67:       827.93 cm**-1
  68:       838.18 cm**-1
  69:       877.07 cm**-1
  70:       882.07 cm**-1
  71:       886.59 cm**-1
  72:       899.06 cm**-1
  73:       900.22 cm**-1
  74:       913.43 cm**-1
  75:       924.51 cm**-1
  76:       928.87 cm**-1
  77:       951.77 cm**-1
  78:       967.33 cm**-1
  79:      1030.02 cm**-1
  80:      1052.34 cm**-1
  81:      1055.32 cm**-1
  82:      1078.36 cm**-1
  83:      1081.69 cm**-1
  84:      1084.93 cm**-1
  85:      1095.48 cm**-1
  86:      1104.60 cm**-1
  87:      1125.33 cm**-1
  88:      1134.78 cm**-1
  89:      1161.33 cm**-1
  90:      1165.74 cm**-1
  91:      1180.10 cm**-1
  92:      1200.67 cm**-1
  93:      1208.69 cm**-1
  94:      1220.03 cm**-1
  95:      1231.24 cm**-1
  96:      1251.60 cm**-1
  97:      1258.22 cm**-1
  98:      1267.37 cm**-1
  99:      1277.63 cm**-1
 100:      1291.93 cm**-1
 101:      1297.93 cm**-1
 102:      1304.84 cm**-1
 103:      1306.77 cm**-1
 104:      1326.21 cm**-1
 105:      1328.29 cm**-1
 106:      1339.98 cm**-1
 107:      1342.78 cm**-1
 108:      1354.31 cm**-1
 109:      1429.65 cm**-1
 110:      1441.52 cm**-1
 111:      1454.61 cm**-1
 112:      1769.32 cm**-1
 113:      1788.28 cm**-1
 114:      2864.20 cm**-1
 115:      2870.67 cm**-1
 116:      2950.51 cm**-1
 117:      2955.99 cm**-1
 118:      2972.34 cm**-1
 119:      2981.23 cm**-1
 120:      2982.14 cm**-1
 121:      2986.41 cm**-1
 122:      2993.50 cm**-1
 123:      3184.80 cm**-1
 124:      3422.13 cm**-1
 125:      3430.01 cm**-1
 126:      3433.09 cm**-1
 127:      3515.43 cm**-1
 128:      3612.93 cm**-1
 129:      3619.25 cm**-1
 130:      3626.46 cm**-1
 131:      3637.72 cm**-1

IR SPECTRUM
-----------

 Mode   freq       eps      Int      T**2         TX        TY        TZ
       cm**-1   L/(mol*cm) km/mol    a.u.
----------------------------------------------------------------------------
  6:     14.53   0.000105    0.53  0.002258  (-0.036345  0.010610  0.028721)
  7:     25.17   0.000081    0.41  0.001009  ( 0.011745  0.017678 -0.023631)
  8:     27.65   0.000174    0.88  0.001962  ( 0.019244  0.034602  0.019855)
  9:     28.46   0.000013    0.06  0.000139  (-0.009311 -0.004141 -0.005916)
 10:     40.97   0.000395    1.99  0.003006  (-0.001475  0.054797 -0.000863)
 11:     53.31   0.000474    2.39  0.002773  ( 0.037107  0.009503 -0.036133)
 12:     62.14   0.000103    0.52  0.000519  (-0.020443 -0.004863  0.008822)
 13:     74.55   0.000046    0.23  0.000192  ( 0.013830  0.000794 -0.000472)
 14:     83.89   0.001623    8.20  0.006036  ( 0.077080  0.006475 -0.007242)
 15:     96.27   0.000905    4.57  0.002934  ( 0.032087  0.030942  0.030769)
 16:    106.85   0.000318    1.61  0.000929  ( 0.002371  0.008832  0.029069)
 17:    120.30   0.000472    2.39  0.001225  (-0.013313 -0.024330 -0.021347)
 18:    131.40   0.001303    6.58  0.003094  ( 0.022518 -0.043196  0.026845)
 19:    140.44   0.000348    1.76  0.000773  (-0.026696 -0.001452 -0.007607)
 20:    145.88   0.004382   22.14  0.009373  (-0.079189  0.006251 -0.055343)
 21:    159.17   0.016181   81.77  0.031724  (-0.071749 -0.089679 -0.136139)
 22:    160.59   0.001057    5.34  0.002055  ( 0.016336  0.022747  0.035640)
 23:    181.27   0.004472   22.60  0.007698  ( 0.058632 -0.050097  0.041845)
 24:    196.24   0.002896   14.63  0.004605  ( 0.026071  0.001554 -0.062634)
 25:    201.33   0.011059   55.89  0.017142  ( 0.029879 -0.127242  0.007677)
 26:    205.64   0.002440   12.33  0.003703  ( 0.015328  0.056242  0.017461)
 27:    214.26   0.002901   14.66  0.004226  (-0.016007  0.061986 -0.011272)
 28:    225.23   0.013014   65.77  0.018031  (-0.101414 -0.087837  0.005544)
 29:    234.28   0.008589   43.41  0.011441  ( 0.078382  0.008011 -0.072339)
 30:    247.86   0.007115   35.95  0.008957  ( 0.069512  0.053013 -0.036266)
 31:    265.87   0.029853  150.87  0.035039  (-0.135826 -0.100826  0.080154)
 32:    274.44   0.000890    4.50  0.001012  (-0.029620 -0.011566 -0.001133)
 33:    284.80   0.003026   15.29  0.003316  ( 0.015653 -0.049339 -0.025231)
 34:    306.53   0.005997   30.30  0.006105  ( 0.005172 -0.071524  0.031023)
 35:    320.70   0.001360    6.87  0.001323  ( 0.009200 -0.025604 -0.024139)
 36:    340.61   0.002276   11.50  0.002086  (-0.039570 -0.022797 -0.000466)
 37:    346.47   0.002758   13.94  0.002484  ( 0.046109 -0.004400 -0.018403)
 38:    352.36   0.005902   29.82  0.005227  ( 0.053510 -0.017696 -0.045280)
 39:    358.33   0.007216   36.46  0.006284  ( 0.037064 -0.040857 -0.056930)
 40:    359.71   0.016673   84.26  0.014464  (-0.081014 -0.023267  0.085789)
 41:    368.04   0.008241   41.65  0.006988  (-0.029465  0.070153  0.034613)
 42:    374.52   0.019588   98.99  0.016321  (-0.127372  0.007166  0.006804)
 43:    390.64   0.005799   29.31  0.004633  ( 0.037898 -0.055586 -0.010335)
 44:    404.53   0.022354  112.97  0.017244  (-0.118821  0.036214 -0.042597)
 45:    410.78   0.033596  169.78  0.025522  ( 0.024787  0.115252 -0.107817)
 46:    414.77   0.000214    1.08  0.000161  (-0.003408 -0.012211  0.000241)
 47:    423.69   0.014633   73.95  0.010778  ( 0.034356 -0.069100 -0.069447)
 48:    430.76   0.010056   50.82  0.007285  ( 0.038680 -0.037226 -0.066359)
 49:    456.30   0.003679   18.59  0.002516  ( 0.034849  0.035050 -0.008548)
 50:    475.41   0.015599   78.83  0.010240  ( 0.062308 -0.056815 -0.055942)
 51:    483.35   0.006910   34.92  0.004461  (-0.015049  0.064443  0.009042)
 52:    498.16   0.016562   83.70  0.010375  (-0.046016 -0.090206  0.010961)
 53:    511.60   0.000123    0.62  0.000075  ( 0.003762 -0.006623  0.004137)
 54:    535.85   0.004521   22.85  0.002633  ( 0.000838 -0.050527  0.008917)
 55:    540.66   0.014511   73.33  0.008375  ( 0.088110  0.023828  0.006651)
 56:    566.09   0.004793   24.22  0.002642  ( 0.031639 -0.031018 -0.026057)
 57:    584.77   0.013178   66.59  0.007032  (-0.065112 -0.016082 -0.050340)
 58:    603.97   0.015360   77.62  0.007936  ( 0.013689 -0.085935  0.019080)
 59:    662.24   0.064124  324.06  0.030217  (-0.147849 -0.063039 -0.066209)
 60:    735.98   0.019562   98.86  0.008294  (-0.073059 -0.053304 -0.010750)
 61:    752.83   0.002904   14.68  0.001204  (-0.013574 -0.003645  0.031722)
 62:    761.24   0.008990   45.43  0.003685  ( 0.030782 -0.043468  0.029125)
 63:    766.54   0.001590    8.04  0.000647  (-0.021337  0.005276  0.012821)
 64:    782.78   0.007612   38.47  0.003035  ( 0.005752 -0.030600 -0.045446)
 65:    822.05   0.042618  215.37  0.016178  ( 0.047434 -0.018013 -0.116636)
 66:    827.49   0.035215  177.96  0.013280  (-0.033108 -0.109751  0.011776)
 67:    827.93   0.027024  136.57  0.010186  ( 0.040000 -0.061181  0.069592)
 68:    838.18   0.026229  132.55  0.009765  ( 0.018173 -0.096948 -0.006026)
 69:    877.07   0.032054  161.99  0.011405  ( 0.012929  0.023398 -0.103394)
 70:    882.07   0.037599  190.01  0.013302  (-0.042454  0.072288  0.079208)
 71:    886.59   0.004954   25.03  0.001744  (-0.005403 -0.036194 -0.020110)
 72:    899.06   0.045133  228.08  0.015666  ( 0.075742 -0.027849 -0.095672)
 73:    900.22   0.056944  287.77  0.019740  (-0.072051  0.093919  0.075682)
 74:    913.43   0.070946  358.53  0.024238  ( 0.138548  0.042888  0.056593)
 75:    924.51   0.038125  192.67  0.012869  (-0.064932  0.020077 -0.090828)
 76:    928.87   0.005877   29.70  0.001974  (-0.017579  0.035563  0.020017)
 77:    951.77   0.007313   36.96  0.002398  (-0.008099  0.027096 -0.039975)
 78:    967.33   0.009145   46.22  0.002950  (-0.014521 -0.049600  0.016712)
 79:   1030.02   0.010767   54.41  0.003262  ( 0.050183 -0.025795  0.008850)
 80:   1052.34   0.003484   17.61  0.001033  (-0.005842 -0.006669 -0.030897)
 81:   1055.32   0.000941    4.76  0.000278  ( 0.007726  0.006464  0.013296)
 82:   1078.36   0.060448  305.48  0.017493  (-0.109883 -0.042703  0.059958)
 83:   1081.69   0.007490   37.85  0.002161  ( 0.000523 -0.011593 -0.045012)
 84:   1084.93   0.017951   90.71  0.005163  ( 0.056090 -0.043308 -0.011901)
 85:   1095.48   0.012812   64.74  0.003650  ( 0.043386 -0.032837 -0.026248)
 86:   1104.60   0.017076   86.29  0.004824  (-0.004480  0.069186  0.004164)
 87:   1125.33   0.010278   51.94  0.002850  ( 0.007303  0.051489 -0.012067)
 88:   1134.78   0.055397  279.95  0.015234  ( 0.016367 -0.100381  0.069927)
 89:   1161.33   0.001389    7.02  0.000373  (-0.014606 -0.011778  0.004602)
 90:   1165.74   0.003548   17.93  0.000950  (-0.017402 -0.006292 -0.024646)
 91:   1180.10   0.002685   13.57  0.000710  (-0.008484 -0.003237  0.025049)
 92:   1200.67   0.017881   90.36  0.004647  ( 0.061321  0.004020 -0.029512)
 93:   1208.69   0.032337  163.42  0.008349  ( 0.062382  0.051696  0.042246)
 94:   1220.03   0.064155  324.21  0.016410  ( 0.096640  0.077090 -0.033578)
 95:   1231.24   0.010789   54.53  0.002735  ( 0.009078 -0.046108  0.022940)
 96:   1251.60   0.015177   76.70  0.003784  (-0.013607  0.044772  0.039930)
 97:   1258.22   0.025923  131.00  0.006429  (-0.018795 -0.005165  0.077778)
 98:   1267.37   0.012134   61.32  0.002988  ( 0.006897 -0.000666  0.054219)
 99:   1277.63   0.025066  126.67  0.006122  ( 0.021631  0.061025 -0.043938)
100:   1291.93   0.010989   55.54  0.002654  (-0.028078  0.003131  0.043085)
101:   1297.93   0.080312  405.87  0.019310  ( 0.129903  0.008850  0.048544)
102:   1304.84   0.006467   32.68  0.001547  ( 0.023794  0.005350 -0.030853)
103:   1306.77   0.010199   51.54  0.002436  ( 0.023004  0.038483  0.020626)
104:   1326.21   0.003345   16.90  0.000787  (-0.004434 -0.027292  0.004740)
105:   1328.29   0.004140   20.92  0.000973  (-0.002675 -0.026277 -0.016582)
106:   1339.98   0.002809   14.19  0.000654  ( 0.006890  0.023194  0.008287)
107:   1342.78   0.008719   44.06  0.002026  ( 0.013877  0.042570 -0.004644)
108:   1354.31   0.010239   51.74  0.002359  ( 0.027551  0.020898 -0.034111)
109:   1429.65   0.000805    4.07  0.000176  ( 0.005263 -0.011158  0.004852)
110:   1441.52   0.001248    6.30  0.000270  (-0.001357 -0.013492 -0.009285)
111:   1454.61   0.001989   10.05  0.000427  ( 0.004376  0.001637 -0.020120)
112:   1769.32   0.056177  283.90  0.009908  (-0.079921  0.059294 -0.002243)
113:   1788.28   0.078782  398.13  0.013748  (-0.029463 -0.044650  0.104337)
114:   2864.20   0.006930   35.02  0.000755  (-0.015682  0.005226 -0.021950)
115:   2870.67   0.003015   15.24  0.000328  ( 0.000880 -0.000951  0.018058)
116:   2950.51   0.000426    2.15  0.000045  (-0.000628  0.000412 -0.006668)
117:   2955.99   0.006177   31.22  0.000652  ( 0.000481  0.000917  0.025516)
118:   2972.34   0.000146    0.74  0.000015  (-0.000443 -0.002387 -0.003072)
119:   2981.23   0.001030    5.21  0.000108  ( 0.003083  0.007990  0.005873)
120:   2982.14   0.008486   42.88  0.000888  ( 0.015894 -0.010590 -0.022873)
121:   2986.41   0.001797    9.08  0.000188  (-0.006894  0.005422 -0.010530)
122:   2993.50   0.002238   11.31  0.000233  ( 0.000421 -0.000679 -0.015252)
123:   3184.80   0.152332  769.82  0.014926  ( 0.104951 -0.054914 -0.029932)
124:   3422.13   0.031180  157.57  0.002843  ( 0.051857 -0.011526 -0.004613)
125:   3430.01   0.002939   14.85  0.000267  (-0.003341  0.014640  0.006474)
126:   3433.09   0.010125   51.17  0.000920  (-0.025066  0.016273  0.005220)
127:   3515.43   0.003053   15.43  0.000271  ( 0.007809 -0.000317  0.014489)
128:   3612.93   0.019604   99.07  0.001693  (-0.019253  0.035426  0.008222)
129:   3619.25   0.011566   58.45  0.000997  ( 0.014690 -0.021974  0.017281)
130:   3626.46   0.014736   74.47  0.001268  (-0.000320 -0.022828 -0.027328)
131:   3637.72   0.013295   67.19  0.001141  ( 0.028087  0.017598 -0.006478)

--------------------------
THERMOCHEMISTRY AT 298.15K
--------------------------

Temperature         ... 298.15 K
Pressure            ... 1.00 atm
Total Mass          ... 428.18 AMU

Throughout the following assumptions are being made:
  (1) The electronic state is orbitally nondegenerate
  (2) There are no thermally accessible electronically excited states
  (3) Hindered rotations indicated by low frequency modes are not
      treated as such but are treated as vibrations and this may
      cause some error
  (4) All equations used are the standard statistical mechanics
      equations for an ideal gas
  (5) All vibrations are strictly harmonic

freq.      14.53  E(vib)   ...       0.57
freq.      25.17  E(vib)   ...       0.56
freq.      27.65  E(vib)   ...       0.55
freq.      28.46  E(vib)   ...       0.55
freq.      40.97  E(vib)   ...       0.54
freq.      53.31  E(vib)   ...       0.52
freq.      62.14  E(vib)   ...       0.51
freq.      74.55  E(vib)   ...       0.49
freq.      83.89  E(vib)   ...       0.48
freq.      96.27  E(vib)   ...       0.47
freq.     106.85  E(vib)   ...       0.45
freq.     120.30  E(vib)   ...       0.44
freq.     131.40  E(vib)   ...       0.42
freq.     140.44  E(vib)   ...       0.41
freq.     145.88  E(vib)   ...       0.41
freq.     159.17  E(vib)   ...       0.39
freq.     160.59  E(vib)   ...       0.39
freq.     181.27  E(vib)   ...       0.37
freq.     196.24  E(vib)   ...       0.36
freq.     201.33  E(vib)   ...       0.35
freq.     205.64  E(vib)   ...       0.35
freq.     214.26  E(vib)   ...       0.34
freq.     225.23  E(vib)   ...       0.33
freq.     234.28  E(vib)   ...       0.32
freq.     247.86  E(vib)   ...       0.31
freq.     265.87  E(vib)   ...       0.29
freq.     274.44  E(vib)   ...       0.28
freq.     284.80  E(vib)   ...       0.28
freq.     306.53  E(vib)   ...       0.26
freq.     320.70  E(vib)   ...       0.25
freq.     340.61  E(vib)   ...       0.23
freq.     346.47  E(vib)   ...       0.23
freq.     352.36  E(vib)   ...       0.23
freq.     358.33  E(vib)   ...       0.22
freq.     359.71  E(vib)   ...       0.22
freq.     368.04  E(vib)   ...       0.21
freq.     374.52  E(vib)   ...       0.21
freq.     390.64  E(vib)   ...       0.20
freq.     404.53  E(vib)   ...       0.19
freq.     410.78  E(vib)   ...       0.19
freq.     414.77  E(vib)   ...       0.19
freq.     423.69  E(vib)   ...       0.18
freq.     430.76  E(vib)   ...       0.18
freq.     456.30  E(vib)   ...       0.16
freq.     475.41  E(vib)   ...       0.15
freq.     483.35  E(vib)   ...       0.15
freq.     498.16  E(vib)   ...       0.14
freq.     511.60  E(vib)   ...       0.14
freq.     535.85  E(vib)   ...       0.12
freq.     540.66  E(vib)   ...       0.12
freq.     566.09  E(vib)   ...       0.11
freq.     584.77  E(vib)   ...       0.11
freq.     603.97  E(vib)   ...       0.10
freq.     662.24  E(vib)   ...       0.08
freq.     735.98  E(vib)   ...       0.06
freq.     752.83  E(vib)   ...       0.06
freq.     761.24  E(vib)   ...       0.06
freq.     766.54  E(vib)   ...       0.06
freq.     782.78  E(vib)   ...       0.05
freq.     822.05  E(vib)   ...       0.05
freq.     827.49  E(vib)   ...       0.04
freq.     827.93  E(vib)   ...       0.04
freq.     838.18  E(vib)   ...       0.04
freq.     877.07  E(vib)   ...       0.04
freq.     882.07  E(vib)   ...       0.04
freq.     886.59  E(vib)   ...       0.04
freq.     899.06  E(vib)   ...       0.03
freq.     900.22  E(vib)   ...       0.03
freq.     913.43  E(vib)   ...       0.03
freq.     924.51  E(vib)   ...       0.03
freq.     928.87  E(vib)   ...       0.03
freq.     951.77  E(vib)   ...       0.03
freq.     967.33  E(vib)   ...       0.03
freq.    1030.02  E(vib)   ...       0.02
freq.    1052.34  E(vib)   ...       0.02
freq.    1055.32  E(vib)   ...       0.02
freq.    1078.36  E(vib)   ...       0.02
freq.    1081.69  E(vib)   ...       0.02
freq.    1084.93  E(vib)   ...       0.02
freq.    1095.48  E(vib)   ...       0.02
freq.    1104.60  E(vib)   ...       0.02
freq.    1125.33  E(vib)   ...       0.01
freq.    1134.78  E(vib)   ...       0.01
freq.    1161.33  E(vib)   ...       0.01
freq.    1165.74  E(vib)   ...       0.01
freq.    1180.10  E(vib)   ...       0.01
freq.    1200.67  E(vib)   ...       0.01
freq.    1208.69  E(vib)   ...       0.01
freq.    1220.03  E(vib)   ...       0.01
freq.    1231.24  E(vib)   ...       0.01
freq.    1251.60  E(vib)   ...       0.01
freq.    1258.22  E(vib)   ...       0.01
freq.    1267.37  E(vib)   ...       0.01
freq.    1277.63  E(vib)   ...       0.01
freq.    1291.93  E(vib)   ...       0.01
freq.    1297.93  E(vib)   ...       0.01
freq.    1304.84  E(vib)   ...       0.01
freq.    1306.77  E(vib)   ...       0.01
freq.    1326.21  E(vib)   ...       0.01
freq.    1328.29  E(vib)   ...       0.01
freq.    1339.98  E(vib)   ...       0.01
freq.    1342.78  E(vib)   ...       0.01
freq.    1354.31  E(vib)   ...       0.01
freq.    1429.65  E(vib)   ...       0.00
freq.    1441.52  E(vib)   ...       0.00
freq.    1454.61  E(vib)   ...       0.00
freq.    1769.32  E(vib)   ...       0.00
freq.    1788.28  E(vib)   ...       0.00
freq.    2864.20  E(vib)   ...       0.00
freq.    2870.67  E(vib)   ...       0.00
freq.    2950.51  E(vib)   ...       0.00
freq.    2955.99  E(vib)   ...       0.00
freq.    2972.34  E(vib)   ...       0.00
freq.    2981.23  E(vib)   ...       0.00
freq.    2982.14  E(vib)   ...       0.00
freq.    2986.41  E(vib)   ...       0.00
freq.    2993.50  E(vib)   ...       0.00
freq.    3184.80  E(vib)   ...       0.00
freq.    3422.13  E(vib)   ...       0.00
freq.    3430.01  E(vib)   ...       0.00
freq.    3433.09  E(vib)   ...       0.00
freq.    3515.43  E(vib)   ...       0.00
freq.    3612.93  E(vib)   ...       0.00
freq.    3619.25  E(vib)   ...       0.00
freq.    3626.46  E(vib)   ...       0.00
freq.    3637.72  E(vib)   ...       0.00

------------
INNER ENERGY
------------

The inner energy is: U= E(el) + E(ZPE) + E(vib) + E(rot) + E(trans)
    E(el)   - is the total energy from the electronic structure calculation
              = E(kin-el) + E(nuc-el) + E(el-el) + E(nuc-nuc)
    E(ZPE)  - the the zero temperature vibrational energy from the frequency calculation
    E(vib)  - the the finite temperature correction to E(ZPE) due to population
              of excited vibrational states
    E(rot)  - is the rotational thermal energy
    E(trans)- is the translational thermal energy

Summary of contributions to the inner energy U:
Electronic energy                ...    -94.79093332 Eh
Zero point energy                ...      0.30493344 Eh     191.35 kcal/mol
Thermal vibrational correction   ...      0.02777321 Eh      17.43 kcal/mol

Rotational constants in cm-1:     0.015484     0.002443     0.002299

                             ****ORCA TERMINATED NORMALLY****
TOTAL RUN TIME: 0 days 0 hours 11 minutes 11 seconds 909 msec
