                         Program Version 5.0.3 -  RELEASE  -
|  1> ! XTB2 opt numfreq
|  2> * XYZ 0 1
|  3> O 0.0811 1.3945 3.1541
|  4> C 0.1097 1.1953 1.9383
|  5> C 0.6548 -0.0989 1.3419
|  6> O 0.8092 -1.0045 2.4747
|  7> C 2.0361 0.2066 0.7568
|  8> O 2.5810 -0.9520 0.1462
|  9> P 3.7671 -0.7353 -0.9013
| 10> O 5.0015 -0.1141 -0.3480
| 11> O 3.0828 0.0594 -2.1004
| 12> O 4.0116 -2.1773 -1.5332
| 13> C -0.3172 -0.8356 0.3872
| 14> O -1.5451 -1.1245 1.1083
| 15> C -0.6496 -0.2695 -1.0195
| 16> O 0.4784 -0.3383 -1.9091
| 17> C -1.2440 1.1437 -1.0837
| 18> O -2.2122 1.3805 -0.0848
| 19> P -3.7206 0.9186 -0.3651
| 20> O -4.3365 1.4745 -1.6010
| 21> O -3.6608 -0.6704 -0.2945
| 22> O -4.5087 1.2832 0.9697
| 23> H -0.1848 1.9908 1.2403
| 24> H 1.0566 -0.4494 3.2452
| 25> H 2.7277 0.5180 1.5482
| 26> H 1.9718 1.0221 0.0280
| 27> H 2.1913 -0.3161 -2.2644
| 28> H 4.9170 -2.4776 -1.3290
| 29> H 0.1190 -1.8287 0.2064
| 30> H -1.2294 -1.4999 1.9636
| 31> H -1.4016 -0.9496 -1.4406
| 32> H 0.0936 -0.3375 -2.8117
| 33> H -1.6678 1.3264 -2.0790
| 34> H -0.4475 1.8886 -0.9751
| 35> H -3.0984 -0.9623 0.4629
| 36> H -5.4661 1.3394 0.7958
| 37> *
| 38>
| 39>                          ****END OF INPUT****
FINAL SINGLE POINT ENERGY       -74.071023002600
FINAL SINGLE POINT ENERGY       -74.080735862980
FINAL SINGLE POINT ENERGY       -74.087500334740
FINAL SINGLE POINT ENERGY       -74.090969113710
FINAL SINGLE POINT ENERGY       -74.091293622180
FINAL SINGLE POINT ENERGY       -74.092069221700
FINAL SINGLE POINT ENERGY       -74.092611428950
FINAL SINGLE POINT ENERGY       -74.093454576240
FINAL SINGLE POINT ENERGY       -74.093967781060
FINAL SINGLE POINT ENERGY       -74.094490634780
FINAL SINGLE POINT ENERGY       -74.096255374640
FINAL SINGLE POINT ENERGY       -74.096300870480
FINAL SINGLE POINT ENERGY       -74.096327328610
FINAL SINGLE POINT ENERGY       -74.096349848520
FINAL SINGLE POINT ENERGY       -74.096371513940
FINAL SINGLE POINT ENERGY       -74.096390183200
FINAL SINGLE POINT ENERGY       -74.096400059870
FINAL SINGLE POINT ENERGY       -74.096406204740
FINAL SINGLE POINT ENERGY       -74.096409435810
                    ***********************HURRAY********************

CARTESIAN COORDINATES (ANGSTROEM)
---------------------------------
  O    -0.656636    1.406895    2.629971
  C    -0.144135    1.272696    1.552552
  C     0.532551   -0.044643    1.174274
  O     0.599020   -0.824078    2.349781
  C     1.949006    0.286166    0.662559
  O     2.569990   -0.883702    0.192210
  P     3.840369   -0.643009   -0.787477
  O     4.905062    0.182872   -0.235861
  O     3.202141   -0.097645   -2.124261
  O     4.215955   -2.150829   -1.115310
  C    -0.228871   -0.956386    0.155601
  O    -1.346269   -1.518224    0.801866
  C    -0.700466   -0.397025   -1.197889
  O     0.392405   -0.399274   -2.096011
  C    -1.342075    1.000438   -1.136955
  O    -2.049582    1.178398    0.061424
  P    -3.654447    0.850312    0.000534
  O    -4.345057    1.603723   -1.036749
  O    -3.774688   -0.708099   -0.124205
  O    -4.042343    1.156952    1.504971
  H    -0.000323    2.109766    0.860970
  H     0.211756   -0.286705    3.066913
  H     2.541031    0.702602    1.484321
  H     1.889541    1.028697   -0.140640
  H     2.346215   -0.503312   -2.303717
  H     4.923732   -2.438730   -0.541169
  H     0.490979   -1.755742   -0.080626
  H    -1.036527   -1.748056    1.695914
  H    -1.459850   -1.118158   -1.538381
  H     0.070543   -0.131502   -2.965336
  H    -2.021700    1.144123   -1.985015
  H    -0.555965    1.762966   -1.183817
  H    -3.095917   -1.167649    0.394975
  H    -4.225445    2.086265    1.631782

FINAL SINGLE POINT ENERGY       -74.096410961440

VIBRATIONAL FREQUENCIES
-----------------------

Scaling factor for frequencies =  1.000000000 (already applied!)

   0:         0.00 cm**-1
   1:         0.00 cm**-1
   2:         0.00 cm**-1
   3:         0.00 cm**-1
   4:         0.00 cm**-1
   5:         0.00 cm**-1
   6:        12.23 cm**-1
   7:        29.00 cm**-1
   8:        33.06 cm**-1
   9:        50.91 cm**-1
  10:        61.58 cm**-1
  11:        76.72 cm**-1
  12:        98.85 cm**-1
  13:       111.51 cm**-1
  14:       119.79 cm**-1
  15:       130.89 cm**-1
  16:       153.55 cm**-1
  17:       172.34 cm**-1
  18:       182.82 cm**-1
  19:       210.97 cm**-1
  20:       216.89 cm**-1
  21:       235.31 cm**-1
  22:       257.87 cm**-1
  23:       281.77 cm**-1
  24:       292.80 cm**-1
  25:       310.85 cm**-1
  26:       313.71 cm**-1
  27:       321.01 cm**-1
  28:       328.54 cm**-1
  29:       340.46 cm**-1
  30:       358.33 cm**-1
  31:       369.60 cm**-1
  32:       375.82 cm**-1
  33:       391.23 cm**-1
  34:       406.93 cm**-1
  35:       410.00 cm**-1
  36:       417.00 cm**-1
  37:       423.73 cm**-1
  38:       440.25 cm**-1
  39:       465.48 cm**-1
  40:       469.84 cm**-1
  41:       481.91 cm**-1
  42:       523.26 cm**-1
  43:       535.01 cm**-1
  44:       555.46 cm**-1
  45:       581.00 cm**-1
  46:       638.46 cm**-1
  47:       669.54 cm**-1
  48:       708.81 cm**-1
  49:       783.33 cm**-1
  50:       794.42 cm**-1
  51:       816.55 cm**-1
  52:       821.86 cm**-1
  53:       868.43 cm**-1
  54:       880.71 cm**-1
  55:       893.28 cm**-1
  56:       901.66 cm**-1
  57:       906.08 cm**-1
  58:       909.70 cm**-1
  59:       934.52 cm**-1
  60:       969.26 cm**-1
  61:       982.90 cm**-1
  62:       990.71 cm**-1
  63:      1049.11 cm**-1
  64:      1061.05 cm**-1
  65:      1093.17 cm**-1
  66:      1096.05 cm**-1
  67:      1102.49 cm**-1
  68:      1117.98 cm**-1
  69:      1136.82 cm**-1
  70:      1150.05 cm**-1
  71:      1197.04 cm**-1
  72:      1217.61 cm**-1
  73:      1238.19 cm**-1
  74:      1242.35 cm**-1
  75:      1274.36 cm**-1
  76:      1289.08 cm**-1
  77:      1292.12 cm**-1
  78:      1294.37 cm**-1
  79:      1306.82 cm**-1
  80:      1318.92 cm**-1
  81:      1331.25 cm**-1
  82:      1340.33 cm**-1
  83:      1352.12 cm**-1
  84:      1359.51 cm**-1
  85:      1452.20 cm**-1
  86:      1470.24 cm**-1
  87:      1759.41 cm**-1
  88:      2873.52 cm**-1
  89:      2884.61 cm**-1
  90:      2886.96 cm**-1
  91:      2915.19 cm**-1
  92:      2918.57 cm**-1
  93:      2924.96 cm**-1
  94:      2938.42 cm**-1
  95:      3304.34 cm**-1
  96:      3329.11 cm**-1
  97:      3364.51 cm**-1
  98:      3467.84 cm**-1
  99:      3527.27 cm**-1
 100:      3629.24 cm**-1
 101:      3629.53 cm**-1

IR SPECTRUM
-----------

 Mode   freq       eps      Int      T**2         TX        TY        TZ
       cm**-1   L/(mol*cm) km/mol    a.u.
----------------------------------------------------------------------------
  6:     12.23   0.000407    2.06  0.010391  ( 0.058901 -0.063223 -0.054075)
  7:     29.00   0.000603    3.05  0.006494  (-0.059869  0.024615 -0.047994)
  8:     33.06   0.000567    2.87  0.005357  ( 0.004913  0.067078 -0.028862)
  9:     50.91   0.000486    2.46  0.002981  ( 0.029101  0.044903 -0.010862)
 10:     61.58   0.001343    6.79  0.006806  (-0.055495  0.053676  0.029067)
 11:     76.72   0.000275    1.39  0.001118  ( 0.015112  0.011652  0.027461)
 12:     98.85   0.000324    1.64  0.001022  ( 0.005413  0.031178  0.004582)
 13:    111.51   0.000435    2.20  0.001218  ( 0.013042 -0.002283 -0.032287)
 14:    119.79   0.002142   10.83  0.005582  ( 0.072883  0.004590  0.015763)
 15:    130.89   0.000153    0.77  0.000364  (-0.011007  0.014306 -0.006194)
 16:    153.55   0.001618    8.18  0.003288  ( 0.055462  0.011526  0.008914)
 17:    172.34   0.002671   13.50  0.004836  (-0.000126  0.006913  0.069196)
 18:    182.82   0.000268    1.35  0.000458  ( 0.016136  0.013876 -0.002181)
 19:    210.97   0.011745   59.35  0.017372  (-0.124933 -0.009979 -0.040798)
 20:    216.89   0.011670   58.98  0.016791  ( 0.056656  0.082237 -0.082571)
 21:    235.31   0.003786   19.13  0.005021  ( 0.063329  0.027545  0.015876)
 22:    257.87   0.004121   20.82  0.004986  ( 0.063560  0.014573 -0.027095)
 23:    281.77   0.004206   21.25  0.004658  ( 0.036279 -0.035678  0.045484)
 24:    292.80   0.020833  105.28  0.022204  (-0.119530 -0.082108  0.034272)
 25:    310.85   0.017071   86.27  0.017137  (-0.129652  0.006792  0.016779)
 26:    313.71   0.003139   15.86  0.003123  (-0.020325 -0.047120  0.022119)
 27:    321.01   0.005082   25.68  0.004941  ( 0.016944  0.053183  0.042723)
 28:    328.54   0.013563   68.54  0.012883  ( 0.026017 -0.075343 -0.080807)
 29:    340.46   0.005439   27.49  0.004986  ( 0.056113 -0.041239  0.011683)
 30:    358.33   0.003638   18.38  0.003168  (-0.049995 -0.015628  0.020596)
 31:    369.60   0.004249   21.47  0.003588  (-0.042484  0.026818  0.032615)
 32:    375.82   0.004742   23.96  0.003937  (-0.022714  0.027503  0.051622)
 33:    391.23   0.004491   22.70  0.003582  ( 0.011734  0.057508 -0.011728)
 34:    406.93   0.020034  101.24  0.015364  (-0.095486 -0.061333 -0.049842)
 35:    410.00   0.005250   26.53  0.003996  ( 0.018938 -0.056219  0.021841)
 36:    417.00   0.012335   62.33  0.009231  ( 0.040223  0.083493 -0.025332)
 37:    423.73   0.022863  115.54  0.016838  ( 0.103282 -0.071722 -0.032049)
 38:    440.25   0.028732  145.20  0.020366  (-0.001676 -0.137571  0.037911)
 39:    465.48   0.010043   50.76  0.006733  ( 0.030588  0.069018  0.032158)
 40:    469.84   0.045478  229.82  0.030205  (-0.135613  0.067230  0.085410)
 41:    481.91   0.012392   62.63  0.008025  ( 0.043258 -0.069721 -0.035952)
 42:    523.26   0.008946   45.21  0.005335  (-0.013174  0.024436 -0.067563)
 43:    535.01   0.006265   31.66  0.003654  (-0.052865 -0.027505  0.010141)
 44:    555.46   0.008287   41.88  0.004655  ( 0.064055  0.015267 -0.017871)
 45:    581.00   0.056055  283.28  0.030108  (-0.132123  0.068216  0.089433)
 46:    638.46   0.002025   10.24  0.000990  ( 0.022371 -0.011260 -0.019046)
 47:    669.54   0.000663    3.35  0.000309  ( 0.011125 -0.007299  0.011497)
 48:    708.81   0.057794  292.07  0.025445  ( 0.159242  0.008273  0.004298)
 49:    783.33   0.030010  151.66  0.011955  (-0.094652  0.000561  0.054736)
 50:    794.42   0.012656   63.96  0.004972  (-0.045491  0.039451  0.036687)
 51:    816.55   0.034263  173.15  0.013094  (-0.062543  0.027120  0.091909)
 52:    821.86   0.011482   58.02  0.004360  (-0.061943 -0.011987  0.019469)
 53:    868.43   0.056294  284.49  0.020229  (-0.080131  0.117506 -0.000539)
 54:    880.71   0.053033  268.01  0.018791  (-0.060554  0.050680  0.112054)
 55:    893.28   0.007660   38.71  0.002676  (-0.030501 -0.030849  0.028180)
 56:    901.66   0.004775   24.13  0.001653  ( 0.035155  0.019629 -0.005612)
 57:    906.08   0.036557  184.75  0.012591  (-0.019832 -0.049087  0.098934)
 58:    909.70   0.043807  221.38  0.015028  ( 0.019538 -0.096634 -0.072854)
 59:    934.52   0.003548   17.93  0.001185  ( 0.009370  0.017897 -0.027869)
 60:    969.26   0.067327  340.24  0.021677  ( 0.019853  0.084032 -0.119253)
 61:    982.90   0.081151  410.10  0.025765  ( 0.084112  0.127171  0.050175)
 62:    990.71   0.010979   55.48  0.003458  (-0.001295 -0.057274 -0.013281)
 63:   1049.11   0.005996   30.30  0.001783  ( 0.025560  0.024254 -0.023278)
 64:   1061.05   0.008492   42.92  0.002498  (-0.038545  0.001782  0.031760)
 65:   1093.17   0.007834   39.59  0.002236  (-0.013395 -0.041973  0.017184)
 66:   1096.05   0.020729  104.76  0.005902  (-0.064827 -0.030711  0.027502)
 67:   1102.49   0.011191   56.56  0.003168  ( 0.044323 -0.029820 -0.017718)
 68:   1117.98   0.048431  244.75  0.013519  ( 0.083398 -0.057409 -0.057162)
 69:   1136.82   0.002944   14.88  0.000808  ( 0.025923 -0.005223  0.010439)
 70:   1150.05   0.005588   28.24  0.001516  ( 0.005860  0.029309 -0.024957)
 71:   1197.04   0.027757  140.27  0.007236  ( 0.079039  0.024684 -0.019483)
 72:   1217.61   0.011539   58.31  0.002957  (-0.050388 -0.014934 -0.013974)
 73:   1238.19   0.004026   20.35  0.001015  (-0.005131  0.010159 -0.029751)
 74:   1242.35   0.006961   35.18  0.001749  ( 0.007612  0.041087 -0.001583)
 75:   1274.36   0.024990  126.29  0.006119  ( 0.003823 -0.046048  0.063122)
 76:   1289.08   0.056363  284.84  0.013645  (-0.083912  0.031593 -0.074868)
 77:   1292.12   0.054262  274.22  0.013105  (-0.090664 -0.046323 -0.052337)
 78:   1294.37   0.022591  114.17  0.005447  (-0.005344 -0.058588  0.044559)
 79:   1306.82   0.026239  132.60  0.006266  (-0.020755 -0.076331 -0.002924)
 80:   1318.92   0.003552   17.95  0.000840  ( 0.012572  0.008597 -0.024665)
 81:   1331.25   0.002102   10.62  0.000493  ( 0.020142  0.005813  0.007296)
 82:   1340.33   0.008103   40.95  0.001887  ( 0.027195 -0.016903  0.029348)
 83:   1352.12   0.006499   32.84  0.001500  (-0.031501 -0.012463  0.018769)
 84:   1359.51   0.000460    2.33  0.000106  ( 0.000756  0.000526  0.010236)
 85:   1452.20   0.000064    0.32  0.000014  (-0.001535  0.003338 -0.000437)
 86:   1470.24   0.000437    2.21  0.000093  (-0.001101  0.004891 -0.008224)
 87:   1759.41   0.057040  288.26  0.010117  ( 0.032187 -0.037283 -0.087699)
 88:   2873.52   0.000032    0.16  0.000004  ( 0.001262  0.001206  0.000691)
 89:   2884.61   0.001881    9.51  0.000203  ( 0.012434 -0.006419 -0.002771)
 90:   2886.96   0.014414   72.84  0.001558  ( 0.004512 -0.036385  0.014624)
 91:   2915.19   0.001031    5.21  0.000110  (-0.010227  0.000116 -0.002395)
 92:   2918.57   0.002059   10.41  0.000220  ( 0.000185 -0.014372  0.003688)
 93:   2924.96   0.003911   19.76  0.000417  ( 0.019010  0.006189 -0.004190)
 94:   2938.42   0.000682    3.44  0.000072  (-0.001283 -0.008148 -0.002085)
 95:   3304.34   0.010703   54.09  0.001011  ( 0.011835 -0.024603 -0.016294)
 96:   3329.11   0.079696  402.75  0.007471  (-0.071242  0.034625 -0.034587)
 97:   3364.51   0.004287   21.67  0.000398  ( 0.002534  0.001960  0.019682)
 98:   3467.84   0.045617  230.53  0.004105  ( 0.061409  0.010341  0.015068)
 99:   3527.27   0.010445   52.78  0.000924  ( 0.008809 -0.014879  0.025002)
100:   3629.24   0.030238  152.81  0.002600  ( 0.034141 -0.024050  0.029258)
101:   3629.53   0.009689   48.96  0.000833  (-0.004537  0.024457  0.014638)

--------------------------
THERMOCHEMISTRY AT 298.15K
--------------------------

Temperature         ... 298.15 K
Pressure            ... 1.00 atm
Total Mass          ... 340.11 AMU

Throughout the following assumptions are being made:
  (1) The electronic state is orbitally nondegenerate
  (2) There are no thermally accessible electronically excited states
  (3) Hindered rotations indicated by low frequency modes are not
      treated as such but are treated as vibrations and this may
      cause some error
  (4) All equations used are the standard statistical mechanics
      equations for an ideal gas
  (5) All vibrations are strictly harmonic

freq.      12.23  E(vib)   ...       0.58
freq.      29.00  E(vib)   ...       0.55
freq.      33.06  E(vib)   ...       0.55
freq.      50.91  E(vib)   ...       0.52
freq.      61.58  E(vib)   ...       0.51
freq.      76.72  E(vib)   ...       0.49
freq.      98.85  E(vib)   ...       0.46
freq.     111.51  E(vib)   ...       0.45
freq.     119.79  E(vib)   ...       0.44
freq.     130.89  E(vib)   ...       0.42
freq.     153.55  E(vib)   ...       0.40
freq.     172.34  E(vib)   ...       0.38
freq.     182.82  E(vib)   ...       0.37
freq.     210.97  E(vib)   ...       0.34
freq.     216.89  E(vib)   ...       0.34
freq.     235.31  E(vib)   ...       0.32
freq.     257.87  E(vib)   ...       0.30
freq.     281.77  E(vib)   ...       0.28
freq.     292.80  E(vib)   ...       0.27
freq.     310.85  E(vib)   ...       0.26
freq.     313.71  E(vib)   ...       0.25
freq.     321.01  E(vib)   ...       0.25
freq.     328.54  E(vib)   ...       0.24
freq.     340.46  E(vib)   ...       0.23
freq.     358.33  E(vib)   ...       0.22
freq.     369.60  E(vib)   ...       0.21
freq.     375.82  E(vib)   ...       0.21
freq.     391.23  E(vib)   ...       0.20
freq.     406.93  E(vib)   ...       0.19
freq.     410.00  E(vib)   ...       0.19
freq.     417.00  E(vib)   ...       0.18
freq.     423.73  E(vib)   ...       0.18
freq.     440.25  E(vib)   ...       0.17
freq.     465.48  E(vib)   ...       0.16
freq.     469.84  E(vib)   ...       0.16
freq.     481.91  E(vib)   ...       0.15
freq.     523.26  E(vib)   ...       0.13
freq.     535.01  E(vib)   ...       0.13
freq.     555.46  E(vib)   ...       0.12
freq.     581.00  E(vib)   ...       0.11
freq.     638.46  E(vib)   ...       0.09
freq.     669.54  E(vib)   ...       0.08
freq.     708.81  E(vib)   ...       0.07
freq.     783.33  E(vib)   ...       0.05
freq.     794.42  E(vib)   ...       0.05
freq.     816.55  E(vib)   ...       0.05
freq.     821.86  E(vib)   ...       0.05
freq.     868.43  E(vib)   ...       0.04
freq.     880.71  E(vib)   ...       0.04
freq.     893.28  E(vib)   ...       0.03
freq.     901.66  E(vib)   ...       0.03
freq.     906.08  E(vib)   ...       0.03
freq.     909.70  E(vib)   ...       0.03
freq.     934.52  E(vib)   ...       0.03
freq.     969.26  E(vib)   ...       0.03
freq.     982.90  E(vib)   ...       0.02
freq.     990.71  E(vib)   ...       0.02
freq.    1049.11  E(vib)   ...       0.02
freq.    1061.05  E(vib)   ...       0.02
freq.    1093.17  E(vib)   ...       0.02
freq.    1096.05  E(vib)   ...       0.02
freq.    1102.49  E(vib)   ...       0.02
freq.    1117.98  E(vib)   ...       0.01
freq.    1136.82  E(vib)   ...       0.01
freq.    1150.05  E(vib)   ...       0.01
freq.    1197.04  E(vib)   ...       0.01
freq.    1217.61  E(vib)   ...       0.01
freq.    1238.19  E(vib)   ...       0.01
freq.    1242.35  E(vib)   ...       0.01
freq.    1274.36  E(vib)   ...       0.01
freq.    1289.08  E(vib)   ...       0.01
freq.    1292.12  E(vib)   ...       0.01
freq.    1294.37  E(vib)   ...       0.01
freq.    1306.82  E(vib)   ...       0.01
freq.    1318.92  E(vib)   ...       0.01
freq.    1331.25  E(vib)   ...       0.01
freq.    1340.33  E(vib)   ...       0.01
freq.    1352.12  E(vib)   ...       0.01
freq.    1359.51  E(vib)   ...       0.01
freq.    1452.20  E(vib)   ...       0.00
freq.    1470.24  E(vib)   ...       0.00
freq.    1759.41  E(vib)   ...       0.00
freq.    2873.52  E(vib)   ...       0.00
freq.    2884.61  E(vib)   ...       0.00
freq.    2886.96  E(vib)   ...       0.00
freq.    2915.19  E(vib)   ...       0.00
freq.    2918.57  E(vib)   ...       0.00
freq.    2924.96  E(vib)   ...       0.00
freq.    2938.42  E(vib)   ...       0.00
freq.    3304.34  E(vib)   ...       0.00
freq.    3329.11  E(vib)   ...       0.00
freq.    3364.51  E(vib)   ...       0.00
freq.    3467.84  E(vib)   ...       0.00
freq.    3527.27  E(vib)   ...       0.00
freq.    3629.24  E(vib)   ...       0.00
freq.    3629.53  E(vib)   ...       0.00

------------
INNER ENERGY
------------

The inner energy is: U= E(el) + E(ZPE) + E(vib) + E(rot) + E(trans)
    E(el)   - is the total energy from the electronic structure calculation
              = E(kin-el) + E(nuc-el) + E(el-el) + E(nuc-nuc)
    E(ZPE)  - the the zero temperature vibrational energy from the frequency calculation
    E(vib)  - the the finite temperature correction to E(ZPE) due to population
              of excited vibrational states
    E(rot)  - is the rotational thermal energy
    E(trans)- is the translational thermal energy

Summary of contributions to the inner energy U:
Electronic energy                ...    -74.09641096 Eh
Zero point energy                ...      0.23272671 Eh     146.04 kcal/mol
Thermal vibrational correction   ...      0.02050564 Eh      12.87 kcal/mol
Thermal rotational correction    ...      0.00141627 Eh       0.89 kcal/mol
Thermal translational correction ...      0.00141627 Eh       0.89 kcal/mol
-----------------------------------------------------------------------
Total thermal energy                    -73.84034606 Eh

Summary of corrections to the electronic energy:
(perhaps to be used in another calculation)
Total thermal correction                  0.02333819 Eh      14.64 kcal/mol
Non-thermal (ZPE) correction              0.23272671 Eh     146.04 kcal/mol
-----------------------------------------------------------------------
Total correction                          0.25606490 Eh     160.68 kcal/mol

--------
ENTHALPY
--------

The enthalpy is H = U + kB*T
                kB is Boltzmann's constant
Total free energy                 ...    -73.84034606 Eh
Thermal Enthalpy correction       ...      0.00094421 Eh       0.59 kcal/mol
-----------------------------------------------------------------------
Total Enthalpy                    ...    -73.83940186 Eh

Note: Only C1 symmetry has been detected, increase convergence thresholds
      if your molecule has a higher symmetry. Symmetry factor of 1.0 is
      used for the rotational entropy correction.

Rotational constants in cm-1:     0.021344     0.005148     0.004745

                             ****ORCA TERMINATED NORMALLY****
TOTAL RUN TIME: 0 days 0 hours 8 minutes 26 seconds 913 msec
