                         Program Version 5.0.3 -  RELEASE  -
|  1> ! XTB2 opt numfreq
|  2> * XYZ 0 1
|  3> C -1.1366 0.8893 1.2233
|  4> C -1.3622 0.4634 -0.2272
|  5> O -1.2455 1.6673 -1.0378
|  6> C -2.8086 -0.0399 -0.3667
|  7> O -3.6597 0.4752 -1.0777
|  8> O -3.1184 -1.0750 0.4336
|  9> C -0.3508 -0.5585 -0.8201
| 10> O -0.4810 -0.5203 -2.2593
| 11> C -0.6202 -1.9783 -0.3079
| 12> O -0.9652 -2.9300 -1.0039
| 13> C 1.1253 -0.2379 -0.5256
| 14> O 1.4438 -0.3866 0.8490
| 15> P 2.8496 0.1731 1.3699
| 16> O 3.1420 -0.0478 2.8119
| 17> O 2.8826 1.7100 0.9519
| 18> O 3.9401 -0.4815 0.4100
| 19> H -1.9612 1.5244 1.5702
| 20> H -0.2315 1.4966 1.3279
| 21> H -1.0764 0.0323 1.9011
| 22> H -2.1251 2.0990 -1.0313
| 23> H -4.0437 -1.3071 0.1970
| 24> H -0.7014 0.4071 -2.4858
| 25> H -0.4916 -2.1186 0.7801
| 26> H 1.7704 -0.9135 -1.1009
| 27> H 1.3594 0.7785 -0.8626
| 28> H 3.5765 2.1893 1.4397
| 29> H 4.2892 -1.3105 0.7871
| 30> *
| 31>
| 32>                          ****END OF INPUT****
FINAL SINGLE POINT ENERGY       -57.690755731230
FINAL SINGLE POINT ENERGY       -57.700734267620
FINAL SINGLE POINT ENERGY       -57.703823491810
FINAL SINGLE POINT ENERGY       -57.704488758620
FINAL SINGLE POINT ENERGY       -57.705267454250
FINAL SINGLE POINT ENERGY       -57.705526929240
FINAL SINGLE POINT ENERGY       -57.705713234400
FINAL SINGLE POINT ENERGY       -57.705803535760
FINAL SINGLE POINT ENERGY       -57.705850991280
FINAL SINGLE POINT ENERGY       -57.705893937620
FINAL SINGLE POINT ENERGY       -57.705907421310
FINAL SINGLE POINT ENERGY       -57.705914063310
FINAL SINGLE POINT ENERGY       -57.705917009820
                    ***********************HURRAY********************

CARTESIAN COORDINATES (ANGSTROEM)
---------------------------------
  C    -1.132327    0.867508    1.276918
  C    -1.352070    0.532236   -0.198067
  O    -1.180176    1.678870   -0.999136
  C    -2.787896    0.039709   -0.396245
  O    -3.555780    0.615452   -1.123132
  O    -3.085881   -1.030658    0.317442
  C    -0.386412   -0.562681   -0.776631
  O    -0.595619   -0.633163   -2.160685
  C    -0.658511   -1.930544   -0.163829
  O    -1.071479   -2.875656   -0.764171
  C     1.090131   -0.173926   -0.525661
  O     1.489633   -0.488826    0.797167
  P     2.872568    0.079349    1.329588
  O     3.166898   -0.262706    2.713806
  O     2.766283    1.637099    0.995020
  O     3.968814   -0.425548    0.271073
  H    -1.858266    1.621683    1.575904
  H    -0.136307    1.274153    1.419162
  H    -1.254224   -0.015496    1.894692
  H    -2.049005    1.897758   -1.381104
  H    -3.987018   -1.341049    0.125950
  H    -0.614445    0.275317   -2.499181
  H    -0.398957   -1.970876    0.906591
  H     1.703517   -0.733316   -1.239155
  H     1.211297    0.896367   -0.715196
  H     3.325459    2.132176    1.591242
  H     4.509572   -1.103232    0.673538

FINAL SINGLE POINT ENERGY       -57.705918970490

VIBRATIONAL FREQUENCIES
-----------------------

Scaling factor for frequencies =  1.000000000 (already applied!)

   0:         0.00 cm**-1
   1:         0.00 cm**-1
   2:         0.00 cm**-1
   3:         0.00 cm**-1
   4:         0.00 cm**-1
   5:         0.00 cm**-1
   6:         4.11 cm**-1
   7:        30.77 cm**-1
   8:        35.52 cm**-1
   9:        52.57 cm**-1
  10:        83.01 cm**-1
  11:        97.08 cm**-1
  12:       127.07 cm**-1
  13:       138.44 cm**-1
  14:       162.06 cm**-1
  15:       177.82 cm**-1
  16:       193.32 cm**-1
  17:       223.32 cm**-1
  18:       233.58 cm**-1
  19:       240.79 cm**-1
  20:       259.62 cm**-1
  21:       278.87 cm**-1
  22:       290.14 cm**-1
  23:       322.35 cm**-1
  24:       338.25 cm**-1
  25:       345.86 cm**-1
  26:       356.85 cm**-1
  27:       374.40 cm**-1
  28:       382.41 cm**-1
  29:       427.54 cm**-1
  30:       432.15 cm**-1
  31:       462.77 cm**-1
  32:       493.47 cm**-1
  33:       500.63 cm**-1
  34:       520.67 cm**-1
  35:       553.90 cm**-1
  36:       610.19 cm**-1
  37:       665.48 cm**-1
  38:       728.10 cm**-1
  39:       745.96 cm**-1
  40:       780.60 cm**-1
  41:       825.16 cm**-1
  42:       845.92 cm**-1
  43:       847.75 cm**-1
  44:       877.78 cm**-1
  45:       887.70 cm**-1
  46:       901.63 cm**-1
  47:       918.12 cm**-1
  48:       957.45 cm**-1
  49:      1046.78 cm**-1
  50:      1061.74 cm**-1
  51:      1090.42 cm**-1
  52:      1110.43 cm**-1
  53:      1134.89 cm**-1
  54:      1138.49 cm**-1
  55:      1156.08 cm**-1
  56:      1177.66 cm**-1
  57:      1206.00 cm**-1
  58:      1244.76 cm**-1
  59:      1271.82 cm**-1
  60:      1296.84 cm**-1
  61:      1321.03 cm**-1
  62:      1335.68 cm**-1
  63:      1354.52 cm**-1
  64:      1392.54 cm**-1
  65:      1456.56 cm**-1
  66:      1463.59 cm**-1
  67:      1480.17 cm**-1
  68:      1783.24 cm**-1
  69:      1799.56 cm**-1
  70:      2826.24 cm**-1
  71:      2940.63 cm**-1
  72:      2953.98 cm**-1
  73:      3027.73 cm**-1
  74:      3068.05 cm**-1
  75:      3072.21 cm**-1
  76:      3346.91 cm**-1
  77:      3413.91 cm**-1
  78:      3434.55 cm**-1
  79:      3628.33 cm**-1
  80:      3634.62 cm**-1

IR SPECTRUM
-----------

 Mode   freq       eps      Int      T**2         TX        TY        TZ
       cm**-1   L/(mol*cm) km/mol    a.u.
----------------------------------------------------------------------------
  6:      4.11   0.000000    0.00  0.000000  ( 0.000000  0.000000  0.000000)
  7:     30.77   0.000465    2.35  0.004720  ( 0.045162 -0.016267  0.049152)
  8:     35.52   0.000170    0.86  0.001492  ( 0.008940 -0.037528  0.002050)
  9:     52.57   0.000647    3.27  0.003840  (-0.052982  0.029165  0.013514)
 10:     83.01   0.000277    1.40  0.001042  (-0.007513  0.000990  0.031378)
 11:     97.08   0.000489    2.47  0.001571  (-0.017308  0.017189  0.031233)
 12:    127.07   0.000576    2.91  0.001414  ( 0.028491  0.023337 -0.007582)
 13:    138.44   0.000104    0.53  0.000235  (-0.010749 -0.007377 -0.008090)
 14:    162.06   0.014818   74.88  0.028533  (-0.008944  0.066690  0.154937)
 15:    177.82   0.001122    5.67  0.001969  (-0.022738 -0.021743  0.031293)
 16:    193.32   0.000611    3.09  0.000987  ( 0.010711  0.025456  0.014978)
 17:    223.32   0.001790    9.04  0.002501  (-0.043853 -0.023380 -0.005576)
 18:    233.58   0.015522   78.44  0.020738  (-0.124669 -0.065559  0.029952)
 19:    240.79   0.000800    4.04  0.001037  (-0.025626 -0.018626 -0.005802)
 20:    259.62   0.000436    2.20  0.000524  ( 0.014303  0.007680 -0.016141)
 21:    278.87   0.005645   28.53  0.006317  ( 0.061042  0.044328  0.025013)
 22:    290.14   0.001975    9.98  0.002125  (-0.023341  0.032984  0.022180)
 23:    322.35   0.001694    8.56  0.001640  (-0.039681  0.001976  0.007827)
 24:    338.25   0.005950   30.07  0.005490  ( 0.001908 -0.039946 -0.062374)
 25:    345.86   0.016493   83.35  0.014881  ( 0.097062 -0.040867 -0.061565)
 26:    356.85   0.006410   32.39  0.005605  (-0.017017 -0.071723  0.013096)
 27:    374.40   0.001196    6.04  0.000997  (-0.029435  0.006960  0.009060)
 28:    382.41   0.024841  125.54  0.020271  ( 0.131268 -0.015157 -0.053015)
 29:    427.54   0.016678   84.28  0.012174  (-0.096614  0.047212  0.024706)
 30:    432.15   0.019133   96.69  0.013816  (-0.039649 -0.099706 -0.047985)
 31:    462.77   0.012609   63.72  0.008503  ( 0.080216  0.027859 -0.035941)
 32:    493.47   0.016633   84.06  0.010518  ( 0.072192  0.069834  0.020735)
 33:    500.63   0.005712   28.87  0.003561  (-0.030491  0.016719 -0.048493)
 34:    520.67   0.000786    3.97  0.000471  (-0.001120 -0.002216 -0.021568)
 35:    553.90   0.001729    8.74  0.000974  ( 0.026892  0.008999 -0.013046)
 36:    610.19   0.023925  120.91  0.012236  ( 0.014085 -0.082678 -0.072122)
 37:    665.48   0.009205   46.52  0.004317  ( 0.064853 -0.005842 -0.008748)
 38:    728.10   0.015256   77.10  0.006539  ( 0.004928 -0.022759 -0.077437)
 39:    745.96   0.011873   60.00  0.004967  (-0.008194 -0.055526  0.042623)
 40:    780.60   0.005751   29.06  0.002299  ( 0.042625  0.006666 -0.020920)
 41:    825.16   0.049830  251.82  0.018845  ( 0.095695 -0.082294 -0.053995)
 42:    845.92   0.005849   29.56  0.002158  (-0.006407 -0.042050 -0.018668)
 43:    847.75   0.053626  271.01  0.019740  (-0.060004 -0.125734 -0.018187)
 44:    877.78   0.060793  307.22  0.021613  (-0.145188  0.018828  0.013361)
 45:    887.70   0.002605   13.16  0.000916  (-0.015304  0.024910 -0.007810)
 46:    901.63   0.006409   32.39  0.002218  (-0.023084 -0.036386  0.019012)
 47:    918.12   0.032790  165.71  0.011145  ( 0.010474  0.074479 -0.074082)
 48:    957.45   0.002531   12.79  0.000825  ( 0.004945 -0.026568  0.009734)
 49:   1046.78   0.005824   29.43  0.001736  ( 0.024374  0.032406  0.009584)
 50:   1061.74   0.005347   27.02  0.001572  ( 0.026372 -0.018702  0.022943)
 51:   1090.42   0.035386  178.83  0.010127  (-0.066270 -0.020239 -0.072978)
 52:   1110.43   0.034999  176.87  0.009836  (-0.011418 -0.043178  0.088550)
 53:   1134.89   0.027383  138.38  0.007529  (-0.008664 -0.056270  0.065483)
 54:   1138.49   0.014344   72.49  0.003932  (-0.006554 -0.062214  0.004278)
 55:   1156.08   0.010097   51.03  0.002726  ( 0.001341  0.045293  0.025929)
 56:   1177.66   0.003406   17.21  0.000903  ( 0.010113  0.027216  0.007714)
 57:   1206.00   0.001875    9.47  0.000485  (-0.003145  0.003508 -0.021514)
 58:   1244.76   0.048599  245.60  0.012184  ( 0.071423  0.077073 -0.033798)
 59:   1271.82   0.009307   47.03  0.002284  ( 0.008083  0.023399  0.040874)
 60:   1296.84   0.080532  406.98  0.019379  (-0.023285  0.041669 -0.130768)
 61:   1321.03   0.009323   47.11  0.002202  ( 0.018050 -0.034928  0.025624)
 62:   1335.68   0.000732    3.70  0.000171  ( 0.010604 -0.001987 -0.007386)
 63:   1354.52   0.010616   53.65  0.002446  (-0.004067  0.012002 -0.047803)
 64:   1392.54   0.002642   13.35  0.000592  ( 0.005160  0.007441  0.022585)
 65:   1456.56   0.001113    5.62  0.000238  ( 0.000284 -0.000022  0.015437)
 66:   1463.59   0.000548    2.77  0.000117  ( 0.002907 -0.002898 -0.009998)
 67:   1480.17   0.000366    1.85  0.000077  (-0.001919 -0.008409 -0.001636)
 68:   1783.24   0.097661  493.54  0.017090  ( 0.072931 -0.071483  0.081618)
 69:   1799.56   0.061816  312.39  0.010720  (-0.031538 -0.094558 -0.027994)
 70:   2826.24   0.013940   70.45  0.001539  (-0.002834  0.000147 -0.039130)
 71:   2940.63   0.001577    7.97  0.000167  ( 0.000185 -0.001700 -0.012822)
 72:   2953.98   0.003564   18.01  0.000376  ( 0.000899 -0.001586  0.019317)
 73:   3027.73   0.004359   22.03  0.000449  ( 0.000042  0.009260  0.019067)
 74:   3068.05   0.000098    0.50  0.000010  ( 0.000154  0.001047  0.002981)
 75:   3072.21   0.001476    7.46  0.000150  (-0.000334  0.000791 -0.012213)
 76:   3346.91   0.027128  137.10  0.002529  ( 0.049416  0.006279  0.006930)
 77:   3413.91   0.012449   62.91  0.001138  ( 0.026325  0.019321  0.008467)
 78:   3434.55   0.008257   41.73  0.000750  ( 0.001131  0.027074 -0.003990)
 79:   3628.33   0.021788  110.11  0.001874  ( 0.004831 -0.042975 -0.001940)
 80:   3634.62   0.026571  134.28  0.002281  (-0.045454 -0.004665 -0.013912)

--------------------------
THERMOCHEMISTRY AT 298.15K
--------------------------

Temperature         ... 298.15 K
Pressure            ... 1.00 atm
Total Mass          ... 258.12 AMU

Throughout the following assumptions are being made:
  (1) The electronic state is orbitally nondegenerate
  (2) There are no thermally accessible electronically excited states
  (3) Hindered rotations indicated by low frequency modes are not
      treated as such but are treated as vibrations and this may
      cause some error
  (4) All equations used are the standard statistical mechanics
      equations for an ideal gas
  (5) All vibrations are strictly harmonic

freq.       4.11  E(vib)   ...       0.59
freq.      30.77  E(vib)   ...       0.55
freq.      35.52  E(vib)   ...       0.54
freq.      52.57  E(vib)   ...       0.52
freq.      83.01  E(vib)   ...       0.48
freq.      97.08  E(vib)   ...       0.46
freq.     127.07  E(vib)   ...       0.43
freq.     138.44  E(vib)   ...       0.42
freq.     162.06  E(vib)   ...       0.39
freq.     177.82  E(vib)   ...       0.37
freq.     193.32  E(vib)   ...       0.36
freq.     223.32  E(vib)   ...       0.33
freq.     233.58  E(vib)   ...       0.32
freq.     240.79  E(vib)   ...       0.31
freq.     259.62  E(vib)   ...       0.30
freq.     278.87  E(vib)   ...       0.28
freq.     290.14  E(vib)   ...       0.27
freq.     322.35  E(vib)   ...       0.25
freq.     338.25  E(vib)   ...       0.24
freq.     345.86  E(vib)   ...       0.23
freq.     356.85  E(vib)   ...       0.22
freq.     374.40  E(vib)   ...       0.21
freq.     382.41  E(vib)   ...       0.21
freq.     427.54  E(vib)   ...       0.18
freq.     432.15  E(vib)   ...       0.18
freq.     462.77  E(vib)   ...       0.16
freq.     493.47  E(vib)   ...       0.14
freq.     500.63  E(vib)   ...       0.14
freq.     520.67  E(vib)   ...       0.13
freq.     553.90  E(vib)   ...       0.12
freq.     610.19  E(vib)   ...       0.10
freq.     665.48  E(vib)   ...       0.08
freq.     728.10  E(vib)   ...       0.06
freq.     745.96  E(vib)   ...       0.06
freq.     780.60  E(vib)   ...       0.05
freq.     825.16  E(vib)   ...       0.04
freq.     845.92  E(vib)   ...       0.04
freq.     847.75  E(vib)   ...       0.04
freq.     877.78  E(vib)   ...       0.04
freq.     887.70  E(vib)   ...       0.04
freq.     901.63  E(vib)   ...       0.03
freq.     918.12  E(vib)   ...       0.03
freq.     957.45  E(vib)   ...       0.03
freq.    1046.78  E(vib)   ...       0.02
freq.    1061.74  E(vib)   ...       0.02
freq.    1090.42  E(vib)   ...       0.02
freq.    1110.43  E(vib)   ...       0.02
freq.    1134.89  E(vib)   ...       0.01
freq.    1138.49  E(vib)   ...       0.01
freq.    1156.08  E(vib)   ...       0.01
freq.    1177.66  E(vib)   ...       0.01
freq.    1206.00  E(vib)   ...       0.01
freq.    1244.76  E(vib)   ...       0.01
freq.    1271.82  E(vib)   ...       0.01
freq.    1296.84  E(vib)   ...       0.01
freq.    1321.03  E(vib)   ...       0.01
freq.    1335.68  E(vib)   ...       0.01
freq.    1354.52  E(vib)   ...       0.01
freq.    1392.54  E(vib)   ...       0.00
freq.    1456.56  E(vib)   ...       0.00
freq.    1463.59  E(vib)   ...       0.00
freq.    1480.17  E(vib)   ...       0.00
freq.    1783.24  E(vib)   ...       0.00
freq.    1799.56  E(vib)   ...       0.00
freq.    2826.24  E(vib)   ...       0.00
freq.    2940.63  E(vib)   ...       0.00
freq.    2953.98  E(vib)   ...       0.00
freq.    3027.73  E(vib)   ...       0.00
freq.    3068.05  E(vib)   ...       0.00
freq.    3072.21  E(vib)   ...       0.00
freq.    3346.91  E(vib)   ...       0.00
freq.    3413.91  E(vib)   ...       0.00
freq.    3434.55  E(vib)   ...       0.00
freq.    3628.33  E(vib)   ...       0.00
freq.    3634.62  E(vib)   ...       0.00

------------
INNER ENERGY
------------

The inner energy is: U= E(el) + E(ZPE) + E(vib) + E(rot) + E(trans)
    E(el)   - is the total energy from the electronic structure calculation
              = E(kin-el) + E(nuc-el) + E(el-el) + E(nuc-nuc)
    E(ZPE)  - the the zero temperature vibrational energy from the frequency calculation
    E(vib)  - the the finite temperature correction to E(ZPE) due to population
              of excited vibrational states
    E(rot)  - is the rotational thermal energy
    E(trans)- is the translational thermal energy

Summary of contributions to the inner energy U:
Electronic energy                ...    -57.70591897 Eh
Zero point energy                ...      0.18544540 Eh     116.37 kcal/mol
Thermal vibrational correction   ...      0.01618506 Eh      10.16 kcal/mol
Thermal rotational correction    ...      0.00141627 Eh       0.89 kcal/mol
Thermal translational correction ...      0.00141627 Eh       0.89 kcal/mol
-----------------------------------------------------------------------
Total thermal energy                    -57.50145597 Eh

Summary of corrections to the electronic energy:
(perhaps to be used in another calculation)
Total thermal correction                  0.01901761 Eh      11.93 kcal/mol
Non-thermal (ZPE) correction              0.18544540 Eh     116.37 kcal/mol
-----------------------------------------------------------------------
Total correction                          0.20446300 Eh     128.30 kcal/mol

--------
ENTHALPY
--------

The enthalpy is H = U + kB*T
                kB is Boltzmann's constant
Total free energy                 ...    -57.50145597 Eh
Thermal Enthalpy correction       ...      0.00094421 Eh       0.59 kcal/mol
-----------------------------------------------------------------------
Total Enthalpy                    ...    -57.50051176 Eh

Note: Only C1 symmetry has been detected, increase convergence thresholds
      if your molecule has a higher symmetry. Symmetry factor of 1.0 is
      used for the rotational entropy correction.

Note: Rotational entropy computed according to Herzberg
Infrared and Raman Spectra, Chapter V,1, Van Nostrand Reinhold, 1945
Point Group:  C1, Symmetry Number:   1
Rotational constants in cm-1:     0.030753     0.009366     0.008774

Vibrational entropy computed according to the QRRHO of S. Grimme
Chem.Eur.J. 2012 18 9955

-------
ENTROPY
-------

The entropy contributions are T*S = T*(S(el)+S(vib)+S(rot)+S(trans))
     S(el)   - electronic entropy
     S(vib)  - vibrational entropy
     S(rot)  - rotational entropy
     S(trans)- translational entropy
The entropies will be listed as multiplied by the temperature to get
units of energy

                             ****ORCA TERMINATED NORMALLY****
TOTAL RUN TIME: 0 days 0 hours 6 minutes 37 seconds 149 msec
