                         Program Version 5.0.3 -  RELEASE  -
|  1> ! XTB2 opt numfreq
|  2> * XYZ 0 1
|  3> C -2.1093 1.4791 -0.5073
|  4> C -2.3552 0.2800 0.3670
|  5> O -3.4031 0.1780 1.0127
|  6> C -1.2785 -0.8325 0.4340
|  7> O -1.0027 -1.3382 -0.8594
|  8> O -1.8050 -1.9660 1.1460
|  9> C -0.0023 -0.4159 1.2172
| 10> O 0.8093 -1.6029 1.4115
| 11> C -0.4210 0.0585 2.6033
| 12> O -0.4528 1.2403 2.9368
| 13> C 0.8967 0.6389 0.5601
| 14> O 1.0362 0.3985 -0.8353
| 15> P 2.5182 0.3190 -1.4359
| 16> O 3.4701 1.3898 -1.0412
| 17> O 2.2552 0.2315 -3.0064
| 18> O 2.9923 -1.1634 -1.1047
| 19> H -1.6186 2.2674 0.0678
| 20> H -1.5087 1.2109 -1.3797
| 21> H -3.0715 1.8533 -0.8749
| 22> H -0.0388 -1.2781 -1.0057
| 23> H -2.7650 -1.9483 0.9588
| 24> H 0.1779 -2.3551 1.4582
| 25> H -0.7540 -0.7301 3.3000
| 26> H 1.8831 0.6327 1.0376
| 27> H 0.4953 1.6495 0.6712
| 28> H 2.1367 1.1128 -3.4033
| 29> H 3.9157 -1.3094 -1.3760
| 30> *
| 31>
| 32>                          ****END OF INPUT****
FINAL SINGLE POINT ENERGY       -57.671242819950
FINAL SINGLE POINT ENERGY       -57.681058668980
FINAL SINGLE POINT ENERGY       -57.684665505740
FINAL SINGLE POINT ENERGY       -57.686944658840
FINAL SINGLE POINT ENERGY       -57.689171082170
FINAL SINGLE POINT ENERGY       -57.690946981780
FINAL SINGLE POINT ENERGY       -57.692353335860
FINAL SINGLE POINT ENERGY       -57.693706460170
FINAL SINGLE POINT ENERGY       -57.694663837090
FINAL SINGLE POINT ENERGY       -57.695498158950
FINAL SINGLE POINT ENERGY       -57.696770420010
FINAL SINGLE POINT ENERGY       -57.696987289850
FINAL SINGLE POINT ENERGY       -57.697068575170
FINAL SINGLE POINT ENERGY       -57.697138954480
FINAL SINGLE POINT ENERGY       -57.697168792590
FINAL SINGLE POINT ENERGY       -57.697182132310
FINAL SINGLE POINT ENERGY       -57.697191347490
FINAL SINGLE POINT ENERGY       -57.697195170100
FINAL SINGLE POINT ENERGY       -57.697197302590
                    ***********************HURRAY********************

CARTESIAN COORDINATES (ANGSTROEM)
---------------------------------
  C    -2.557073    1.371923   -0.154005
  C    -2.399300    0.030054    0.460303
  O    -3.230531   -0.540337    1.122004
  C    -1.072857   -0.726832    0.181292
  O    -0.904971   -0.736863   -1.187687
  O    -1.201227   -2.029023    0.692349
  C     0.157821   -0.111070    0.970880
  O     1.146589   -1.099414    1.075973
  C    -0.357304    0.294594    2.343078
  O    -0.931926    1.321190    2.571981
  C     0.824550    1.103916    0.309703
  O     1.249053    0.846083   -0.999395
  P     2.532577   -0.096817   -1.214095
  O     3.600840    0.044928   -0.229679
  O     2.897048    0.287396   -2.710188
  O     1.964449   -1.566506   -1.461539
  H    -2.184204    2.110104    0.556599
  H    -1.989496    1.433923   -1.077553
  H    -3.612224    1.572045   -0.324175
  H    -0.066543   -1.162335   -1.428769
  H    -2.124740   -2.131985    0.991089
  H     0.695018   -1.953881    1.183893
  H    -0.158276   -0.457074    3.127216
  H     1.696284    1.345912    0.928477
  H     0.140868    1.951684    0.269107
  H     3.439958    1.072687   -2.743830
  H     2.445817   -2.174003   -0.900629

FINAL SINGLE POINT ENERGY       -57.697197944160

VIBRATIONAL FREQUENCIES
-----------------------

Scaling factor for frequencies =  1.000000000 (already applied!)

   0:         0.00 cm**-1
   1:         0.00 cm**-1
   2:         0.00 cm**-1
   3:         0.00 cm**-1
   4:         0.00 cm**-1
   5:         0.00 cm**-1
   6:        29.92 cm**-1
   7:        54.49 cm**-1
   8:        71.85 cm**-1
   9:        79.55 cm**-1
  10:        90.04 cm**-1
  11:       119.40 cm**-1
  12:       138.28 cm**-1
  13:       162.28 cm**-1
  14:       176.04 cm**-1
  15:       188.67 cm**-1
  16:       194.59 cm**-1
  17:       205.39 cm**-1
  18:       222.49 cm**-1
  19:       238.12 cm**-1
  20:       253.82 cm**-1
  21:       284.63 cm**-1
  22:       294.90 cm**-1
  23:       333.66 cm**-1
  24:       350.79 cm**-1
  25:       366.26 cm**-1
  26:       370.52 cm**-1
  27:       396.98 cm**-1
  28:       418.34 cm**-1
  29:       424.05 cm**-1
  30:       449.42 cm**-1
  31:       472.23 cm**-1
  32:       485.69 cm**-1
  33:       495.69 cm**-1
  34:       542.00 cm**-1
  35:       554.24 cm**-1
  36:       585.43 cm**-1
  37:       590.84 cm**-1
  38:       650.20 cm**-1
  39:       703.43 cm**-1
  40:       739.44 cm**-1
  41:       808.89 cm**-1
  42:       850.18 cm**-1
  43:       864.43 cm**-1
  44:       884.34 cm**-1
  45:       890.25 cm**-1
  46:       933.16 cm**-1
  47:       943.92 cm**-1
  48:       981.43 cm**-1
  49:      1014.80 cm**-1
  50:      1039.51 cm**-1
  51:      1046.68 cm**-1
  52:      1088.35 cm**-1
  53:      1108.59 cm**-1
  54:      1127.25 cm**-1
  55:      1163.52 cm**-1
  56:      1170.57 cm**-1
  57:      1217.29 cm**-1
  58:      1232.59 cm**-1
  59:      1277.61 cm**-1
  60:      1293.27 cm**-1
  61:      1317.04 cm**-1
  62:      1333.44 cm**-1
  63:      1344.33 cm**-1
  64:      1351.81 cm**-1
  65:      1411.93 cm**-1
  66:      1431.10 cm**-1
  67:      1437.50 cm**-1
  68:      1769.89 cm**-1
  69:      1783.73 cm**-1
  70:      2808.04 cm**-1
  71:      2930.59 cm**-1
  72:      3000.82 cm**-1
  73:      3004.42 cm**-1
  74:      3043.14 cm**-1
  75:      3061.94 cm**-1
  76:      3301.54 cm**-1
  77:      3388.59 cm**-1
  78:      3416.42 cm**-1
  79:      3617.95 cm**-1
  80:      3635.60 cm**-1

IR SPECTRUM
-----------

 Mode   freq       eps      Int      T**2         TX        TY        TZ
       cm**-1   L/(mol*cm) km/mol    a.u.
----------------------------------------------------------------------------
  6:     29.92   0.000689    3.48  0.007186  ( 0.050488  0.053200 -0.042505)
  7:     54.49   0.000127    0.64  0.000726  ( 0.003895 -0.011448  0.024088)
  8:     71.85   0.001167    5.90  0.005068  ( 0.058337  0.019335 -0.035927)
  9:     79.55   0.000788    3.98  0.003091  ( 0.041538  0.018621  0.031922)
 10:     90.04   0.001847    9.34  0.006402  (-0.044318 -0.044755 -0.049349)
 11:    119.40   0.000621    3.14  0.001623  ( 0.037954 -0.009682  0.009412)
 12:    138.28   0.001174    5.93  0.002648  (-0.043925 -0.011749 -0.024102)
 13:    162.28   0.000950    4.80  0.001827  (-0.027025  0.023331  0.023510)
 14:    176.04   0.004283   21.64  0.007592  ( 0.079107 -0.029651  0.021323)
 15:    188.67   0.002678   13.53  0.004430  ( 0.009157 -0.019685 -0.062915)
 16:    194.59   0.022977  116.12  0.036849  (-0.150577  0.095496  0.071105)
 17:    205.39   0.010388   52.50  0.015783  ( 0.100118 -0.042350 -0.062977)
 18:    222.49   0.011825   59.76  0.016585  (-0.026610  0.015451 -0.125053)
 19:    238.12   0.009475   47.89  0.012418  (-0.045322  0.100967 -0.013023)
 20:    253.82   0.001563    7.90  0.001922  (-0.019074 -0.034363 -0.019421)
 21:    284.63   0.003443   17.40  0.003775  (-0.053261  0.015368  0.026506)
 22:    294.90   0.003978   20.10  0.004209  (-0.034599  0.043935 -0.032893)
 23:    333.66   0.005280   26.69  0.004939  (-0.020257 -0.048760  0.046377)
 24:    350.79   0.003374   17.05  0.003002  ( 0.026647 -0.038941  0.027845)
 25:    366.26   0.003095   15.64  0.002637  ( 0.022548  0.042439 -0.018102)
 26:    370.52   0.014183   71.67  0.011945  ( 0.053954 -0.025191 -0.091648)
 27:    396.98   0.018134   91.64  0.014255  (-0.110156  0.036488  0.028098)
 28:    418.34   0.011443   57.83  0.008536  ( 0.056628  0.072648 -0.007163)
 29:    424.05   0.001812    9.16  0.001333  (-0.015842 -0.009449  0.031511)
 30:    449.42   0.006609   33.40  0.004589  (-0.017506  0.048796  0.043608)
 31:    472.23   0.010662   53.88  0.007046  ( 0.075592  0.030925 -0.019375)
 32:    485.69   0.002941   14.86  0.001890  ( 0.004995 -0.039083  0.018364)
 33:    495.69   0.015818   79.94  0.009958  (-0.011080  0.012714  0.098355)
 34:    542.00   0.045194  228.39  0.026021  (-0.066593 -0.124685 -0.077720)
 35:    554.24   0.000410    2.07  0.000231  (-0.006991 -0.013434 -0.001328)
 36:    585.43   0.007141   36.09  0.003807  (-0.026182  0.000903  0.055859)
 37:    590.84   0.001244    6.28  0.000657  ( 0.007440  0.000523 -0.024519)
 38:    650.20   0.015896   80.33  0.007629  ( 0.035992 -0.040219  0.068676)
 39:    703.43   0.001966    9.94  0.000872  ( 0.018947  0.000629  0.022647)
 40:    739.44   0.025468  128.70  0.010748  (-0.087685  0.043810  0.033763)
 41:    808.89   0.031766  160.53  0.012255  ( 0.047526 -0.094592 -0.032383)
 42:    850.18   0.068710  347.23  0.025220  ( 0.083889  0.071441 -0.114363)
 43:    864.43   0.014154   71.53  0.005110  (-0.036249 -0.061497 -0.003740)
 44:    884.34   0.028599  144.53  0.010092  ( 0.049486 -0.041473 -0.076961)
 45:    890.25   0.005253   26.54  0.001841  ( 0.017254  0.036867 -0.013578)
 46:    933.16   0.064566  326.29  0.021592  (-0.030150 -0.102594 -0.100783)
 47:    943.92   0.005439   27.48  0.001798  ( 0.037659 -0.018348  0.006574)
 48:    981.43   0.017958   90.75  0.005710  ( 0.037608  0.027600  0.059446)
 49:   1014.80   0.004369   22.08  0.001343  ( 0.002507 -0.028672  0.022694)
 50:   1039.51   0.007162   36.19  0.002150  ( 0.015514 -0.042468 -0.010289)
 51:   1046.68   0.016432   83.04  0.004899  (-0.008272 -0.061609 -0.032173)
 52:   1088.35   0.006686   33.79  0.001917  (-0.033940 -0.026965  0.006171)
 53:   1108.59   0.013425   67.84  0.003779  (-0.050808  0.034607 -0.000144)
 54:   1127.25   0.058612  296.20  0.016226  (-0.011611 -0.029912  0.123274)
 55:   1163.52   0.048298  244.08  0.012954  (-0.090829  0.068499  0.003435)
 56:   1170.57   0.023095  116.71  0.006157  (-0.018146  0.000134  0.076339)
 57:   1217.29   0.024534  123.98  0.006289  (-0.001230  0.075871  0.023056)
 58:   1232.59   0.001534    7.75  0.000388  (-0.000705  0.017694  0.008650)
 59:   1277.61   0.060705  306.78  0.014828  (-0.076753 -0.035702 -0.087533)
 60:   1293.27   0.043849  221.60  0.010581  ( 0.093520 -0.024697  0.034995)
 61:   1317.04   0.034252  173.09  0.008116  ( 0.025167 -0.060706  0.061621)
 62:   1333.44   0.002538   12.82  0.000594  (-0.011792 -0.003408 -0.021053)
 63:   1344.33   0.002741   13.85  0.000636  (-0.006785  0.016058  0.018232)
 64:   1351.81   0.009097   45.97  0.002100  ( 0.006349 -0.044665 -0.008038)
 65:   1411.93   0.003723   18.81  0.000823  ( 0.026378  0.009318 -0.006341)
 66:   1431.10   0.009336   47.18  0.002036  (-0.012490  0.032238  0.028993)
 67:   1437.50   0.005866   29.65  0.001273  (-0.030862  0.004446 -0.017357)
 68:   1769.89   0.053848  272.13  0.009494  (-0.056768 -0.072815  0.031142)
 69:   1783.73   0.047314  239.10  0.008278  ( 0.054767 -0.043063 -0.058513)
 70:   2808.04   0.012530   63.32  0.001392  (-0.009544  0.027855 -0.022924)
 71:   2930.59   0.003470   17.53  0.000369  (-0.001580 -0.008811 -0.017009)
 72:   3000.82   0.000891    4.50  0.000093  (-0.000871  0.007680 -0.005737)
 73:   3004.42   0.003218   16.26  0.000334  ( 0.011231 -0.012259 -0.007603)
 74:   3043.14   0.001383    6.99  0.000142  (-0.002007 -0.006125  0.010016)
 75:   3061.94   0.001941    9.81  0.000198  ( 0.003540 -0.011706  0.006945)
 76:   3301.54   0.020152  101.84  0.001905  ( 0.043418 -0.004004 -0.001903)
 77:   3388.59   0.017304   87.45  0.001594  ( 0.020734  0.032107  0.011524)
 78:   3416.42   0.041207  208.24  0.003764  (-0.060081  0.010782  0.006159)
 79:   3617.95   0.014900   75.30  0.001285  ( 0.025211 -0.023451  0.009982)
 80:   3635.60   0.018686   94.43  0.001604  (-0.022745 -0.025555  0.020821)

--------------------------
THERMOCHEMISTRY AT 298.15K
--------------------------

Temperature         ... 298.15 K
Pressure            ... 1.00 atm
Total Mass          ... 258.12 AMU

Throughout the following assumptions are being made:
  (1) The electronic state is orbitally nondegenerate
  (2) There are no thermally accessible electronically excited states
  (3) Hindered rotations indicated by low frequency modes are not
      treated as such but are treated as vibrations and this may
      cause some error
  (4) All equations used are the standard statistical mechanics
      equations for an ideal gas
  (5) All vibrations are strictly harmonic

freq.      29.92  E(vib)   ...       0.55
freq.      54.49  E(vib)   ...       0.52
freq.      71.85  E(vib)   ...       0.50
freq.      79.55  E(vib)   ...       0.49
freq.      90.04  E(vib)   ...       0.47
freq.     119.40  E(vib)   ...       0.44
freq.     138.28  E(vib)   ...       0.42
freq.     162.28  E(vib)   ...       0.39
freq.     176.04  E(vib)   ...       0.38
freq.     188.67  E(vib)   ...       0.36
freq.     194.59  E(vib)   ...       0.36
freq.     205.39  E(vib)   ...       0.35
freq.     222.49  E(vib)   ...       0.33
freq.     238.12  E(vib)   ...       0.32
freq.     253.82  E(vib)   ...       0.30
freq.     284.63  E(vib)   ...       0.28
freq.     294.90  E(vib)   ...       0.27
freq.     333.66  E(vib)   ...       0.24
freq.     350.79  E(vib)   ...       0.23
freq.     366.26  E(vib)   ...       0.22
freq.     370.52  E(vib)   ...       0.21
freq.     396.98  E(vib)   ...       0.20
freq.     418.34  E(vib)   ...       0.18
freq.     424.05  E(vib)   ...       0.18
freq.     449.42  E(vib)   ...       0.17
freq.     472.23  E(vib)   ...       0.15
freq.     485.69  E(vib)   ...       0.15
freq.     495.69  E(vib)   ...       0.14
freq.     542.00  E(vib)   ...       0.12
freq.     554.24  E(vib)   ...       0.12
freq.     585.43  E(vib)   ...       0.11
freq.     590.84  E(vib)   ...       0.10
freq.     650.20  E(vib)   ...       0.08
freq.     703.43  E(vib)   ...       0.07
freq.     739.44  E(vib)   ...       0.06
freq.     808.89  E(vib)   ...       0.05
freq.     850.18  E(vib)   ...       0.04
freq.     864.43  E(vib)   ...       0.04
freq.     884.34  E(vib)   ...       0.04
freq.     890.25  E(vib)   ...       0.04
freq.     933.16  E(vib)   ...       0.03
freq.     943.92  E(vib)   ...       0.03
freq.     981.43  E(vib)   ...       0.02
freq.    1014.80  E(vib)   ...       0.02
freq.    1039.51  E(vib)   ...       0.02
freq.    1046.68  E(vib)   ...       0.02
freq.    1088.35  E(vib)   ...       0.02
freq.    1108.59  E(vib)   ...       0.02
freq.    1127.25  E(vib)   ...       0.01
freq.    1163.52  E(vib)   ...       0.01
freq.    1170.57  E(vib)   ...       0.01
freq.    1217.29  E(vib)   ...       0.01
freq.    1232.59  E(vib)   ...       0.01
freq.    1277.61  E(vib)   ...       0.01
freq.    1293.27  E(vib)   ...       0.01
freq.    1317.04  E(vib)   ...       0.01
freq.    1333.44  E(vib)   ...       0.01
freq.    1344.33  E(vib)   ...       0.01
freq.    1351.81  E(vib)   ...       0.01
freq.    1411.93  E(vib)   ...       0.00
freq.    1431.10  E(vib)   ...       0.00
freq.    1437.50  E(vib)   ...       0.00
freq.    1769.89  E(vib)   ...       0.00
freq.    1783.73  E(vib)   ...       0.00
freq.    2808.04  E(vib)   ...       0.00
freq.    2930.59  E(vib)   ...       0.00
freq.    3000.82  E(vib)   ...       0.00
freq.    3004.42  E(vib)   ...       0.00
freq.    3043.14  E(vib)   ...       0.00
freq.    3061.94  E(vib)   ...       0.00
freq.    3301.54  E(vib)   ...       0.00
freq.    3388.59  E(vib)   ...       0.00
freq.    3416.42  E(vib)   ...       0.00
freq.    3617.95  E(vib)   ...       0.00
freq.    3635.60  E(vib)   ...       0.00

------------
INNER ENERGY
------------

The inner energy is: U= E(el) + E(ZPE) + E(vib) + E(rot) + E(trans)
    E(el)   - is the total energy from the electronic structure calculation
              = E(kin-el) + E(nuc-el) + E(el-el) + E(nuc-nuc)
    E(ZPE)  - the the zero temperature vibrational energy from the frequency calculation
    E(vib)  - the the finite temperature correction to E(ZPE) due to population
              of excited vibrational states
    E(rot)  - is the rotational thermal energy
    E(trans)- is the translational thermal energy

Summary of contributions to the inner energy U:
Electronic energy                ...    -57.69719794 Eh
Zero point energy                ...      0.18466851 Eh     115.88 kcal/mol
Thermal vibrational correction   ...      0.01580027 Eh       9.91 kcal/mol
Thermal rotational correction    ...      0.00141627 Eh       0.89 kcal/mol
Thermal translational correction ...      0.00141627 Eh       0.89 kcal/mol
-----------------------------------------------------------------------
Total thermal energy                    -57.49389662 Eh

Summary of corrections to the electronic energy:
(perhaps to be used in another calculation)
Total thermal correction                  0.01863281 Eh      11.69 kcal/mol
Non-thermal (ZPE) correction              0.18466851 Eh     115.88 kcal/mol
-----------------------------------------------------------------------
Total correction                          0.20330132 Eh     127.57 kcal/mol

--------
ENTHALPY
--------

The enthalpy is H = U + kB*T
                kB is Boltzmann's constant
Total free energy                 ...    -57.49389662 Eh
Thermal Enthalpy correction       ...      0.00094421 Eh       0.59 kcal/mol
-----------------------------------------------------------------------
Total Enthalpy                    ...    -57.49295241 Eh

Note: Only C1 symmetry has been detected, increase convergence thresholds
      if your molecule has a higher symmetry. Symmetry factor of 1.0 is
      used for the rotational entropy correction.

Note: Rotational entropy computed according to Herzberg
Infrared and Raman Spectra, Chapter V,1, Van Nostrand Reinhold, 1945
Point Group:  C1, Symmetry Number:   1
Rotational constants in cm-1:     0.031226     0.011245     0.010771

Vibrational entropy computed according to the QRRHO of S. Grimme
Chem.Eur.J. 2012 18 9955

-------
ENTROPY
-------

The entropy contributions are T*S = T*(S(el)+S(vib)+S(rot)+S(trans))
     S(el)   - electronic entropy
     S(vib)  - vibrational entropy
     S(rot)  - rotational entropy
     S(trans)- translational entropy
The entropies will be listed as multiplied by the temperature to get
units of energy

                             ****ORCA TERMINATED NORMALLY****
TOTAL RUN TIME: 0 days 0 hours 6 minutes 38 seconds 867 msec
