                         Program Version 5.0.3 -  RELEASE  -
|  1> ! XTB2 opt numfreq
|  2> * xyz 0 1
|  3> C -1.439169 -.128901 -.474598
|  4> C -.308977 .480907 .326712
|  5> O -.410943 1.324177 1.194377
|  6> C 1.070627 -.096174 -.059282
|  7> O 1.211001 -1.188835 -.595836
|  8> O 2.072879 .747701 .271473
|  9> H -1.278779 -1.287249 -.583515
| 10> H -1.428811 .323566 -1.561446
| 11> H -2.395799 .131109 .052660
| 12> H 2.935399 .361499 .043940
| 13> *
| 14>
| 15>                          ****END OF INPUT****
FINAL SINGLE POINT ENERGY       -20.628106431460
FINAL SINGLE POINT ENERGY       -20.639265864400
FINAL SINGLE POINT ENERGY       -20.639454537070
FINAL SINGLE POINT ENERGY       -20.639496350260
FINAL SINGLE POINT ENERGY       -20.639507543160
FINAL SINGLE POINT ENERGY       -20.639530458270
FINAL SINGLE POINT ENERGY       -20.639540794180
FINAL SINGLE POINT ENERGY       -20.639556998570
FINAL SINGLE POINT ENERGY       -20.639566350990
FINAL SINGLE POINT ENERGY       -20.639570804470
FINAL SINGLE POINT ENERGY       -20.639571995960
                    ***********************HURRAY********************

CARTESIAN COORDINATES (ANGSTROEM)
---------------------------------
  C    -1.417224   -0.096659   -0.494578
  C    -0.318800    0.435076    0.370299
  O    -0.450904    1.192284    1.291870
  C     1.064754   -0.122645   -0.017720
  O     1.243987   -1.248361   -0.401175
  O     2.023442    0.780115    0.123258
  H    -1.301837   -1.174326   -0.591770
  H    -1.323535    0.334673   -1.490750
  H    -2.388017    0.156986   -0.078946
  H     2.895562    0.410656   -0.096003

FINAL SINGLE POINT ENERGY       -20.639572563340

VIBRATIONAL FREQUENCIES
-----------------------

Scaling factor for frequencies =  1.000000000 (already applied!)

   0:         0.00 cm**-1
   1:         0.00 cm**-1
   2:         0.00 cm**-1
   3:         0.00 cm**-1
   4:         0.00 cm**-1
   5:         0.00 cm**-1
   6:        30.79 cm**-1
   7:       120.90 cm**-1
   8:       210.33 cm**-1
   9:       282.30 cm**-1
  10:       370.98 cm**-1
  11:       552.27 cm**-1
  12:       573.55 cm**-1
  13:       632.15 cm**-1
  14:       716.43 cm**-1
  15:       749.69 cm**-1
  16:       979.06 cm**-1
  17:       988.02 cm**-1
  18:      1123.33 cm**-1
  19:      1145.96 cm**-1
  20:      1254.42 cm**-1
  21:      1355.84 cm**-1
  22:      1428.33 cm**-1
  23:      1433.98 cm**-1
  24:      1778.78 cm**-1
  25:      1789.33 cm**-1
  26:      3012.30 cm**-1
  27:      3034.32 cm**-1
  28:      3063.38 cm**-1
  29:      3407.41 cm**-1

IR SPECTRUM
-----------

 Mode   freq       eps      Int      T**2         TX        TY        TZ
       cm**-1   L/(mol*cm) km/mol    a.u.
----------------------------------------------------------------------------
  6:     30.79   0.002300   11.62  0.023308  ( 0.004662 -0.083080  0.128000)
  7:    120.90   0.001888    9.54  0.004873  ( 0.002667  0.012292 -0.068661)
  8:    210.33   0.000993    5.02  0.001473  (-0.035693  0.012332  0.006834)
  9:    282.30   0.000220    1.11  0.000244  (-0.008140  0.000854  0.013295)
 10:    370.98   0.000454    2.30  0.000382  ( 0.017719  0.006140  0.005515)
 11:    552.27   0.007209   36.43  0.004074  ( 0.060424  0.014015 -0.015035)
 12:    573.55   0.012076   61.02  0.006570  ( 0.075351  0.025431  0.015673)
 13:    632.15   0.018400   92.99  0.009083  (-0.041393  0.036708 -0.077605)
 14:    716.43   0.026404  133.44  0.011501  ( 0.001093 -0.037474  0.100477)
 15:    749.69   0.003143   15.88  0.001308  (-0.032203 -0.011413 -0.011878)
 16:    979.06   0.002003   10.12  0.000638  (-0.002948  0.013898 -0.020896)
 17:    988.02   0.003471   17.54  0.001096  ( 0.009183  0.031752 -0.001963)
 18:   1123.33   0.050825  256.85  0.014119  (-0.102400 -0.053568 -0.027641)
 19:   1145.96   0.012489   63.11  0.003401  ( 0.001661 -0.058284  0.001112)
 20:   1254.42   0.013189   66.65  0.003281  (-0.048944 -0.028008  0.010059)
 21:   1355.84   0.012428   62.81  0.002861  (-0.040285 -0.008429 -0.034156)
 22:   1428.33   0.002871   14.51  0.000627  ( 0.002266 -0.020064  0.014819)
 23:   1433.98   0.007620   38.51  0.001658  (-0.008609  0.034729  0.019443)
 24:   1778.78   0.090467  457.18  0.015871  ( 0.011512  0.117809  0.043126)
 25:   1789.33   0.030704  155.17  0.005355  (-0.000440  0.034780  0.064383)
 26:   3012.30   0.001251    6.32  0.000130  ( 0.008054  0.008041  0.000259)
 27:   3034.32   0.001908    9.64  0.000196  ( 0.012032  0.005922  0.004049)
 28:   3063.38   0.005548   28.04  0.000565  (-0.019232  0.013975  0.000215)
 29:   3407.41   0.005830   29.46  0.000534  (-0.020160 -0.001686  0.011164)

--------------------------
THERMOCHEMISTRY AT 298.15K
--------------------------

Temperature         ... 298.15 K
Pressure            ... 1.00 atm
Total Mass          ... 88.06 AMU

Throughout the following assumptions are being made:
  (1) The electronic state is orbitally nondegenerate
  (2) There are no thermally accessible electronically excited states
  (3) Hindered rotations indicated by low frequency modes are not
      treated as such but are treated as vibrations and this may
      cause some error
  (4) All equations used are the standard statistical mechanics
      equations for an ideal gas
  (5) All vibrations are strictly harmonic

freq.      30.79  E(vib)   ...       0.55
freq.     120.90  E(vib)   ...       0.44
freq.     210.33  E(vib)   ...       0.34
freq.     282.30  E(vib)   ...       0.28
freq.     370.98  E(vib)   ...       0.21
freq.     552.27  E(vib)   ...       0.12
freq.     573.55  E(vib)   ...       0.11
freq.     632.15  E(vib)   ...       0.09
freq.     716.43  E(vib)   ...       0.07
freq.     749.69  E(vib)   ...       0.06
freq.     979.06  E(vib)   ...       0.03
freq.     988.02  E(vib)   ...       0.02
freq.    1123.33  E(vib)   ...       0.01
freq.    1145.96  E(vib)   ...       0.01
freq.    1254.42  E(vib)   ...       0.01
freq.    1355.84  E(vib)   ...       0.01
freq.    1428.33  E(vib)   ...       0.00
freq.    1433.98  E(vib)   ...       0.00
freq.    1778.78  E(vib)   ...       0.00
freq.    1789.33  E(vib)   ...       0.00
freq.    3012.30  E(vib)   ...       0.00
freq.    3034.32  E(vib)   ...       0.00
freq.    3063.38  E(vib)   ...       0.00
freq.    3407.41  E(vib)   ...       0.00

------------
INNER ENERGY
------------

The inner energy is: U= E(el) + E(ZPE) + E(vib) + E(rot) + E(trans)
    E(el)   - is the total energy from the electronic structure calculation
              = E(kin-el) + E(nuc-el) + E(el-el) + E(nuc-nuc)
    E(ZPE)  - the the zero temperature vibrational energy from the frequency calculation
    E(vib)  - the the finite temperature correction to E(ZPE) due to population
              of excited vibrational states
    E(rot)  - is the rotational thermal energy
    E(trans)- is the translational thermal energy

Summary of contributions to the inner energy U:
Electronic energy                ...    -20.63957256 Eh
Zero point energy                ...      0.06842212 Eh      42.94 kcal/mol
Thermal vibrational correction   ...      0.00376489 Eh       2.36 kcal/mol
Thermal rotational correction    ...      0.00141627 Eh       0.89 kcal/mol
Thermal translational correction ...      0.00141627 Eh       0.89 kcal/mol
-----------------------------------------------------------------------
Total thermal energy                    -20.56455301 Eh

Summary of corrections to the electronic energy:
(perhaps to be used in another calculation)
Total thermal correction                  0.00659743 Eh       4.14 kcal/mol
Non-thermal (ZPE) correction              0.06842212 Eh      42.94 kcal/mol
-----------------------------------------------------------------------
Total correction                          0.07501955 Eh      47.08 kcal/mol

--------
ENTHALPY
--------

The enthalpy is H = U + kB*T
                kB is Boltzmann's constant
Total free energy                 ...    -20.56455301 Eh
Thermal Enthalpy correction       ...      0.00094421 Eh       0.59 kcal/mol
-----------------------------------------------------------------------
Total Enthalpy                    ...    -20.56360880 Eh

Note: Only C1 symmetry has been detected, increase convergence thresholds
      if your molecule has a higher symmetry. Symmetry factor of 1.0 is
      used for the rotational entropy correction.

Note: Rotational entropy computed according to Herzberg
Infrared and Raman Spectra, Chapter V,1, Van Nostrand Reinhold, 1945
Point Group:  C1, Symmetry Number:   1
Rotational constants in cm-1:     0.187305     0.111589     0.076409

Vibrational entropy computed according to the QRRHO of S. Grimme
Chem.Eur.J. 2012 18 9955

-------
ENTROPY
-------

The entropy contributions are T*S = T*(S(el)+S(vib)+S(rot)+S(trans))
     S(el)   - electronic entropy
     S(vib)  - vibrational entropy
     S(rot)  - rotational entropy
     S(trans)- translational entropy
The entropies will be listed as multiplied by the temperature to get
units of energy

Electronic entropy                ...      0.00000000 Eh      0.00 kcal/mol
Vibrational entropy               ...      0.00666073 Eh      4.18 kcal/mol
Rotational entropy                ...      0.01255089 Eh      7.88 kcal/mol
Translational entropy             ...      0.01869119 Eh     11.73 kcal/mol
-----------------------------------------------------------------------
Final entropy term                ...      0.03790281 Eh     23.78 kcal/mol

In case the symmetry of your molecule has not been determined correctly
or in case you have a reason to use a different symmetry number we print
out the resulting rotational entropy values for sn=1,12 :
 --------------------------------------------------------
|  sn= 1 | S(rot)=       0.01255089 Eh      7.88 kcal/mol|
|  sn= 2 | S(rot)=       0.01189643 Eh      7.47 kcal/mol|
|  sn= 3 | S(rot)=       0.01151360 Eh      7.22 kcal/mol|
|  sn= 4 | S(rot)=       0.01124197 Eh      7.05 kcal/mol|
|  sn= 5 | S(rot)=       0.01103128 Eh      6.92 kcal/mol|
|  sn= 6 | S(rot)=       0.01085914 Eh      6.81 kcal/mol|
|  sn= 7 | S(rot)=       0.01071359 Eh      6.72 kcal/mol|
|  sn= 8 | S(rot)=       0.01058752 Eh      6.64 kcal/mol|
|  sn= 9 | S(rot)=       0.01047631 Eh      6.57 kcal/mol|
|  sn=10 | S(rot)=       0.01037683 Eh      6.51 kcal/mol|
|  sn=11 | S(rot)=       0.01028684 Eh      6.46 kcal/mol|
|  sn=12 | S(rot)=       0.01020468 Eh      6.40 kcal/mol|
 --------------------------------------------------------

-------------------
GIBBS FREE ENERGY
-------------------

The Gibbs free energy is G = H - T*S

Total enthalpy                    ...    -20.56360880 Eh
Total entropy correction          ...     -0.03790281 Eh    -23.78 kcal/mol
-----------------------------------------------------------------------
Final Gibbs free energy         ...    -20.60151161 Eh

For completeness - the Gibbs free energy minus the electronic energy
G-E(el)                           ...      0.03806095 Eh     23.88 kcal/mol

                             ****ORCA TERMINATED NORMALLY****
TOTAL RUN TIME: 0 days 0 hours 2 minutes 25 seconds 319 msec
