                         Program Version 5.0.3 -  RELEASE  -
|  1> ! XTB2 opt numfreq
|  2> * XYZ 1 1
|  3> O -0.0002 0.0022 0.2226
|  4> H -0.2912 0.8987 -0.0832
|  5> H -0.6333 -0.7027 -0.0681
|  6> H 0.9247 -0.1982 -0.0713
|  7> *
|  8>
|  9>                          ****END OF INPUT****
FINAL SINGLE POINT ENERGY        -5.088073519210
FINAL SINGLE POINT ENERGY        -5.088179341940
FINAL SINGLE POINT ENERGY        -5.088189088320
FINAL SINGLE POINT ENERGY        -5.088192145070
FINAL SINGLE POINT ENERGY        -5.088192581290
                    ***********************HURRAY********************

CARTESIAN COORDINATES (ANGSTROEM)
---------------------------------
  O    -0.000221    0.002048    0.213384
  H    -0.289999    0.895057   -0.080101
  H    -0.630698   -0.699767   -0.065039
  H     0.920917   -0.197338   -0.068243

FINAL SINGLE POINT ENERGY        -5.088192591230

VIBRATIONAL FREQUENCIES
-----------------------

Scaling factor for frequencies =  1.000000000 (already applied!)

   0:         0.00 cm**-1
   1:         0.00 cm**-1
   2:         0.00 cm**-1
   3:         0.00 cm**-1
   4:         0.00 cm**-1
   5:         0.00 cm**-1
   6:       956.88 cm**-1
   7:      1354.69 cm**-1
   8:      1354.77 cm**-1
   9:      3257.63 cm**-1
  10:      3257.67 cm**-1
  11:      3317.81 cm**-1

IR SPECTRUM
-----------

 Mode   freq       eps      Int      T**2         TX        TY        TZ
       cm**-1   L/(mol*cm) km/mol    a.u.
----------------------------------------------------------------------------
  6:    956.88   0.131065  662.35  0.042744  (-0.018714  0.002639  0.205880)
  7:   1354.69   0.040353  203.93  0.009296  ( 0.046246 -0.084593  0.001001)
  8:   1354.77   0.028859  145.84  0.006647  ( 0.069773  0.042177 -0.000415)
  9:   3257.63   0.065735  332.20  0.006297  (-0.006827 -0.079056  0.000760)
 10:   3257.67   0.073846  373.19  0.007074  ( 0.083845 -0.006630  0.000182)
 11:   3317.81   0.010576   53.44  0.000995  (-0.009101  0.001301 -0.030169)

--------------------------
THERMOCHEMISTRY AT 298.15K
--------------------------

Temperature         ... 298.15 K
Pressure            ... 1.00 atm
Total Mass          ... 19.02 AMU

Throughout the following assumptions are being made:
  (1) The electronic state is orbitally nondegenerate
  (2) There are no thermally accessible electronically excited states
  (3) Hindered rotations indicated by low frequency modes are not
      treated as such but are treated as vibrations and this may
      cause some error
  (4) All equations used are the standard statistical mechanics
      equations for an ideal gas
  (5) All vibrations are strictly harmonic

freq.     956.88  E(vib)   ...       0.03
freq.    1354.69  E(vib)   ...       0.01
freq.    1354.77  E(vib)   ...       0.01
freq.    3257.63  E(vib)   ...       0.00
freq.    3257.67  E(vib)   ...       0.00
freq.    3317.81  E(vib)   ...       0.00

------------
INNER ENERGY
------------

The inner energy is: U= E(el) + E(ZPE) + E(vib) + E(rot) + E(trans)
    E(el)   - is the total energy from the electronic structure calculation
              = E(kin-el) + E(nuc-el) + E(el-el) + E(nuc-nuc)
    E(ZPE)  - the the zero temperature vibrational energy from the frequency calculation
    E(vib)  - the the finite temperature correction to E(ZPE) due to population
              of excited vibrational states
    E(rot)  - is the rotational thermal energy
    E(trans)- is the translational thermal energy

Summary of contributions to the inner energy U:
Electronic energy                ...     -5.08819259 Eh
Zero point energy                ...      0.03075398 Eh      19.30 kcal/mol
Thermal vibrational correction   ...      0.00006141 Eh       0.04 kcal/mol
Thermal rotational correction    ...      0.00141627 Eh       0.89 kcal/mol
Thermal translational correction ...      0.00141627 Eh       0.89 kcal/mol
-----------------------------------------------------------------------
Total thermal energy                     -5.05454466 Eh

Summary of corrections to the electronic energy:
(perhaps to be used in another calculation)
Total thermal correction                  0.00289395 Eh       1.82 kcal/mol
Non-thermal (ZPE) correction              0.03075398 Eh      19.30 kcal/mol
-----------------------------------------------------------------------
Total correction                          0.03364793 Eh      21.11 kcal/mol

--------
ENTHALPY
--------

The enthalpy is H = U + kB*T
                kB is Boltzmann's constant
Total free energy                 ...     -5.05454466 Eh
Thermal Enthalpy correction       ...      0.00094421 Eh       0.59 kcal/mol
-----------------------------------------------------------------------
Total Enthalpy                    ...     -5.05360045 Eh

Note: Rotational entropy computed according to Herzberg
Infrared and Raman Spectra, Chapter V,1, Van Nostrand Reinhold, 1945
Point Group:  C3v, Symmetry Number:   3
Rotational constants in cm-1:    10.901321    10.900463     6.287556

Vibrational entropy computed according to the QRRHO of S. Grimme
Chem.Eur.J. 2012 18 9955

-------
ENTROPY
-------

The entropy contributions are T*S = T*(S(el)+S(vib)+S(rot)+S(trans))
     S(el)   - electronic entropy
     S(vib)  - vibrational entropy
     S(rot)  - rotational entropy
     S(trans)- translational entropy
The entropies will be listed as multiplied by the temperature to get
units of energy

Electronic entropy                ...      0.00000000 Eh      0.00 kcal/mol
Vibrational entropy               ...      0.00007355 Eh      0.05 kcal/mol
Rotational entropy                ...      0.00535005 Eh      3.36 kcal/mol
Translational entropy             ...      0.01652091 Eh     10.37 kcal/mol
-----------------------------------------------------------------------
Final entropy term                ...      0.02194451 Eh     13.77 kcal/mol

In case the symmetry of your molecule has not been determined correctly
or in case you have a reason to use a different symmetry number we print
out the resulting rotational entropy values for sn=1,12 :
 --------------------------------------------------------
|  sn= 1 | S(rot)=       0.00638734 Eh      4.01 kcal/mol|
|  sn= 2 | S(rot)=       0.00573288 Eh      3.60 kcal/mol|
|  sn= 3 | S(rot)=       0.00535005 Eh      3.36 kcal/mol|
|  sn= 4 | S(rot)=       0.00507842 Eh      3.19 kcal/mol|
|  sn= 5 | S(rot)=       0.00486774 Eh      3.05 kcal/mol|
|  sn= 6 | S(rot)=       0.00469559 Eh      2.95 kcal/mol|
|  sn= 7 | S(rot)=       0.00455004 Eh      2.86 kcal/mol|
|  sn= 8 | S(rot)=       0.00442397 Eh      2.78 kcal/mol|
|  sn= 9 | S(rot)=       0.00431276 Eh      2.71 kcal/mol|
|  sn=10 | S(rot)=       0.00421328 Eh      2.64 kcal/mol|
|  sn=11 | S(rot)=       0.00412329 Eh      2.59 kcal/mol|
|  sn=12 | S(rot)=       0.00404113 Eh      2.54 kcal/mol|
 --------------------------------------------------------

-------------------
GIBBS FREE ENERGY
-------------------

The Gibbs free energy is G = H - T*S

Total enthalpy                    ...     -5.05360045 Eh
Total entropy correction          ...     -0.02194451 Eh    -13.77 kcal/mol
-----------------------------------------------------------------------
Final Gibbs free energy         ...     -5.07554496 Eh

For completeness - the Gibbs free energy minus the electronic energy
G-E(el)                           ...      0.01264764 Eh      7.94 kcal/mol

                             ****ORCA TERMINATED NORMALLY****
TOTAL RUN TIME: 0 days 0 hours 0 minutes 58 seconds 184 msec
