                         Program Version 5.0.3 -  RELEASE  -
|  1> ! XTB2 opt numfreq
|  2> * XYZ 0 1
|  3> O 0.0066 0.3978 0.0000
|  4> H 0.7601 -0.2115 0.0000
|  5> H -0.7667 -0.1862 0.0000
|  6> *
|  7>
|  8>                          ****END OF INPUT****
FINAL SINGLE POINT ENERGY        -5.070207283460
FINAL SINGLE POINT ENERGY        -5.070460637710
FINAL SINGLE POINT ENERGY        -5.070538573210
FINAL SINGLE POINT ENERGY        -5.070544249240
                    ***********************HURRAY********************

CARTESIAN COORDINATES (ANGSTROEM)
---------------------------------
  O     0.006287    0.379330    0.000000
  H     0.768937   -0.202412    0.000000
  H    -0.775223   -0.176818    0.000000

FINAL SINGLE POINT ENERGY        -5.070544447370

VIBRATIONAL FREQUENCIES
-----------------------

Scaling factor for frequencies =  1.000000000 (already applied!)

   0:         0.00 cm**-1
   1:         0.00 cm**-1
   2:         0.00 cm**-1
   3:         0.00 cm**-1
   4:         0.00 cm**-1
   5:         0.00 cm**-1
   6:      1539.37 cm**-1
   7:      3643.04 cm**-1
   8:      3651.19 cm**-1

IR SPECTRUM
-----------

 Mode   freq       eps      Int      T**2         TX        TY        TZ
       cm**-1   L/(mol*cm) km/mol    a.u.
----------------------------------------------------------------------------
  6:   1539.37   0.020509  103.64  0.004158  (-0.000545 -0.064477  0.000000)
  7:   3643.04   0.000558    2.82  0.000048  (-0.000603 -0.006888 -0.000000)
  8:   3651.19   0.005269   26.63  0.000450  ( 0.021209 -0.000692 -0.000000)

--------------------------
THERMOCHEMISTRY AT 298.15K
--------------------------

Temperature         ... 298.15 K
Pressure            ... 1.00 atm
Total Mass          ... 18.02 AMU

Throughout the following assumptions are being made:
  (1) The electronic state is orbitally nondegenerate
  (2) There are no thermally accessible electronically excited states
  (3) Hindered rotations indicated by low frequency modes are not
      treated as such but are treated as vibrations and this may
      cause some error
  (4) All equations used are the standard statistical mechanics
      equations for an ideal gas
  (5) All vibrations are strictly harmonic

freq.    1539.37  E(vib)   ...       0.00
freq.    3643.04  E(vib)   ...       0.00
freq.    3651.19  E(vib)   ...       0.00

------------
INNER ENERGY
------------

The inner energy is: U= E(el) + E(ZPE) + E(vib) + E(rot) + E(trans)
    E(el)   - is the total energy from the electronic structure calculation
              = E(kin-el) + E(nuc-el) + E(el-el) + E(nuc-nuc)
    E(ZPE)  - the the zero temperature vibrational energy from the frequency calculation
    E(vib)  - the the finite temperature correction to E(ZPE) due to population
              of excited vibrational states
    E(rot)  - is the rotational thermal energy
    E(trans)- is the translational thermal energy

Summary of contributions to the inner energy U:
Electronic energy                ...     -5.07054445 Eh
Zero point energy                ...      0.02012443 Eh      12.63 kcal/mol
Thermal vibrational correction   ...      0.00000417 Eh       0.00 kcal/mol
Thermal rotational correction    ...      0.00141627 Eh       0.89 kcal/mol
Thermal translational correction ...      0.00141627 Eh       0.89 kcal/mol
-----------------------------------------------------------------------
Total thermal energy                     -5.04758331 Eh

Summary of corrections to the electronic energy:
(perhaps to be used in another calculation)
Total thermal correction                  0.00283671 Eh       1.78 kcal/mol
Non-thermal (ZPE) correction              0.02012443 Eh      12.63 kcal/mol
-----------------------------------------------------------------------
Total correction                          0.02296114 Eh      14.41 kcal/mol

--------
ENTHALPY
--------

The enthalpy is H = U + kB*T
                kB is Boltzmann's constant
Total free energy                 ...     -5.04758331 Eh
Thermal Enthalpy correction       ...      0.00094421 Eh       0.59 kcal/mol
-----------------------------------------------------------------------
Total Enthalpy                    ...     -5.04663910 Eh

Note: Rotational entropy computed according to Herzberg
Infrared and Raman Spectra, Chapter V,1, Van Nostrand Reinhold, 1945
Point Group:  C2v, Symmetry Number:   2
Rotational constants in cm-1:    29.079607    14.023696     9.461075

Vibrational entropy computed according to the QRRHO of S. Grimme
Chem.Eur.J. 2012 18 9955

-------
ENTROPY
-------

The entropy contributions are T*S = T*(S(el)+S(vib)+S(rot)+S(trans))
     S(el)   - electronic entropy
     S(vib)  - vibrational entropy
     S(rot)  - rotational entropy
     S(trans)- translational entropy
The entropies will be listed as multiplied by the temperature to get
units of energy

Electronic entropy                ...      0.00000000 Eh      0.00 kcal/mol
Vibrational entropy               ...      0.00000473 Eh      0.00 kcal/mol
Rotational entropy                ...      0.00495784 Eh      3.11 kcal/mol
Translational entropy             ...      0.01644380 Eh     10.32 kcal/mol
-----------------------------------------------------------------------
Final entropy term                ...      0.02140638 Eh     13.43 kcal/mol

In case the symmetry of your molecule has not been determined correctly
or in case you have a reason to use a different symmetry number we print
out the resulting rotational entropy values for sn=1,12 :
 --------------------------------------------------------
|  sn= 1 | S(rot)=       0.00561230 Eh      3.52 kcal/mol|
|  sn= 2 | S(rot)=       0.00495784 Eh      3.11 kcal/mol|
|  sn= 3 | S(rot)=       0.00457501 Eh      2.87 kcal/mol|
|  sn= 4 | S(rot)=       0.00430339 Eh      2.70 kcal/mol|
|  sn= 5 | S(rot)=       0.00409270 Eh      2.57 kcal/mol|
|  sn= 6 | S(rot)=       0.00392056 Eh      2.46 kcal/mol|
|  sn= 7 | S(rot)=       0.00377501 Eh      2.37 kcal/mol|
|  sn= 8 | S(rot)=       0.00364893 Eh      2.29 kcal/mol|
|  sn= 9 | S(rot)=       0.00353772 Eh      2.22 kcal/mol|
|  sn=10 | S(rot)=       0.00343824 Eh      2.16 kcal/mol|
|  sn=11 | S(rot)=       0.00334825 Eh      2.10 kcal/mol|
|  sn=12 | S(rot)=       0.00326610 Eh      2.05 kcal/mol|
 --------------------------------------------------------

-------------------
GIBBS FREE ENERGY
-------------------

The Gibbs free energy is G = H - T*S

Total enthalpy                    ...     -5.04663910 Eh
Total entropy correction          ...     -0.02140638 Eh    -13.43 kcal/mol
-----------------------------------------------------------------------
Final Gibbs free energy         ...     -5.06804548 Eh

For completeness - the Gibbs free energy minus the electronic energy
G-E(el)                           ...      0.00249897 Eh      1.57 kcal/mol

                             ****ORCA TERMINATED NORMALLY****
TOTAL RUN TIME: 0 days 0 hours 0 minutes 43 seconds 717 msec
