                         Program Version 5.0.3 -  RELEASE  -
|  1> ! XTB2 opt numfreq
|  2> * xyz 0 1
|  3>   O    -0.618842    0.010413   -2.105074
|  4>   C    -0.557745    0.934823   -1.333547
|  5>   C    -1.290425    1.000454   -0.009683
|  6>   O    -1.074415    2.223591    0.636222
|  7>   C    -0.930557   -0.188849    0.928941
|  8>   O    -0.348065   -1.285816    0.270270
|  9>   P     1.140830   -1.058574   -0.291128
| 10>   O     1.522920    0.365740   -0.323351
| 11>   O     2.059063   -1.929136    0.658563
| 12>   O     1.205472   -1.889906   -1.621024
| 13>   H    -0.005137    1.858829   -1.574564
| 14>   H    -2.360459    0.970665   -0.245921
| 15>   H    -0.121456    2.348320    0.741141
| 16>   H    -0.248501    0.204295    1.690993
| 17>   H    -1.824173   -0.577122    1.423629
| 18>   H     2.851661   -1.451115    0.898689
| 19>   H     0.599829   -1.536412   -2.279555
| 20> *
| 21>
| 22>                          ****END OF INPUT****
FINAL SINGLE POINT ENERGY       -37.035023950930
FINAL SINGLE POINT ENERGY       -37.032366316650
FINAL SINGLE POINT ENERGY       -37.035270953480
FINAL SINGLE POINT ENERGY       -37.034487060080
FINAL SINGLE POINT ENERGY       -37.035660119410
FINAL SINGLE POINT ENERGY       -37.035936915700
FINAL SINGLE POINT ENERGY       -37.036459884890
FINAL SINGLE POINT ENERGY       -37.037022633930
FINAL SINGLE POINT ENERGY       -37.037479593390
FINAL SINGLE POINT ENERGY       -37.037880788780
FINAL SINGLE POINT ENERGY       -37.039528751480
FINAL SINGLE POINT ENERGY       -37.039553922180
FINAL SINGLE POINT ENERGY       -37.039642231700
FINAL SINGLE POINT ENERGY       -37.039651178400
FINAL SINGLE POINT ENERGY       -37.039716878330
FINAL SINGLE POINT ENERGY       -37.039740966330
FINAL SINGLE POINT ENERGY       -37.039755668390
FINAL SINGLE POINT ENERGY       -37.039764845270
FINAL SINGLE POINT ENERGY       -37.039766600700
                    ***********************HURRAY********************

CARTESIAN COORDINATES (ANGSTROEM)
---------------------------------
  O    -0.947381   -0.103361   -1.972934
  C    -0.723969    0.894726   -1.329739
  C    -1.108890    1.055949    0.125541
  O    -0.294576    1.975426    0.783590
  C    -1.168851   -0.323024    0.809507
  O     0.072801   -0.999169    0.861354
  P     1.227253   -0.873439   -0.237505
  O     1.501636    0.520331   -0.650768
  O     2.414666   -1.590158    0.499120
  O     0.956688   -1.916925   -1.380974
  H    -0.306695    1.804391   -1.786780
  H    -2.128279    1.470590    0.144814
  H     0.619173    1.791319    0.506365
  H    -1.479198   -0.200393    1.850403
  H    -1.895968   -0.943150    0.274743
  H     2.948889   -0.966523    0.988760
  H     0.312701   -1.596391   -2.020895

FINAL SINGLE POINT ENERGY       -37.039767408170

VIBRATIONAL FREQUENCIES
-----------------------

Scaling factor for frequencies =  1.000000000 (already applied!)

   0:         0.00 cm**-1
   1:         0.00 cm**-1
   2:         0.00 cm**-1
   3:         0.00 cm**-1
   4:         0.00 cm**-1
   5:         0.00 cm**-1
   6:        73.21 cm**-1
   7:       116.94 cm**-1
   8:       128.79 cm**-1
   9:       139.80 cm**-1
  10:       193.58 cm**-1
  11:       200.94 cm**-1
  12:       251.65 cm**-1
  13:       271.08 cm**-1
  14:       305.25 cm**-1
  15:       346.82 cm**-1
  16:       375.89 cm**-1
  17:       401.84 cm**-1
  18:       407.79 cm**-1
  19:       423.16 cm**-1
  20:       476.61 cm**-1
  21:       548.02 cm**-1
  22:       557.87 cm**-1
  23:       692.92 cm**-1
  24:       728.98 cm**-1
  25:       828.40 cm**-1
  26:       839.55 cm**-1
  27:       873.88 cm**-1
  28:       897.69 cm**-1
  29:       907.41 cm**-1
  30:       943.43 cm**-1
  31:       952.42 cm**-1
  32:      1022.66 cm**-1
  33:      1104.56 cm**-1
  34:      1135.01 cm**-1
  35:      1172.27 cm**-1
  36:      1198.39 cm**-1
  37:      1223.05 cm**-1
  38:      1238.12 cm**-1
  39:      1310.63 cm**-1
  40:      1325.46 cm**-1
  41:      1341.35 cm**-1
  42:      1442.34 cm**-1
  43:      1735.62 cm**-1
  44:      2849.79 cm**-1
  45:      2886.29 cm**-1
  46:      2931.57 cm**-1
  47:      2966.60 cm**-1
  48:      3382.65 cm**-1
  49:      3483.94 cm**-1
  50:      3619.00 cm**-1

IR SPECTRUM
-----------

 Mode   freq       eps      Int      T**2         TX        TY        TZ
       cm**-1   L/(mol*cm) km/mol    a.u.
----------------------------------------------------------------------------
  6:     73.21   0.000832    4.20  0.003546  ( 0.059298 -0.003335  0.004329)
  7:    116.94   0.000686    3.47  0.001831  (-0.037198 -0.002726  0.020978)
  8:    128.79   0.012886   65.12  0.031224  (-0.026171 -0.042173  0.169590)
  9:    139.80   0.004162   21.03  0.009291  (-0.068959 -0.028691  0.060929)
 10:    193.58   0.000202    1.02  0.000325  ( 0.017250 -0.000959  0.005167)
 11:    200.94   0.002453   12.40  0.003809  ( 0.038746 -0.018583  0.044302)
 12:    251.65   0.005789   29.26  0.007179  ( 0.079591 -0.006507  0.028318)
 13:    271.08   0.007155   36.16  0.008236  (-0.080900 -0.027178 -0.030870)
 14:    305.25   0.009278   46.89  0.009485  (-0.082128  0.009931  0.051391)
 15:    346.82   0.002017   10.19  0.001815  (-0.023662  0.034888  0.006171)
 16:    375.89   0.004872   24.62  0.004045  ( 0.030788  0.002818 -0.055580)
 17:    401.84   0.008668   43.80  0.006731  (-0.062340  0.005791  0.053025)
 18:    407.79   0.021030  106.28  0.016093  (-0.087683 -0.066766 -0.062828)
 19:    423.16   0.027505  139.00  0.020284  (-0.071094 -0.045693  0.114637)
 20:    476.61   0.028893  146.01  0.018918  (-0.127720  0.046170  0.021771)
 21:    548.02   0.019004   96.04  0.010822  (-0.012653  0.062915 -0.081873)
 22:    557.87   0.017508   88.48  0.009794  ( 0.011074 -0.064290  0.074416)
 23:    692.92   0.005804   29.33  0.002614  (-0.048187 -0.015314  0.007558)
 24:    728.98   0.031545  159.42  0.013504  (-0.062166 -0.033061  0.092447)
 25:    828.40   0.001435    7.25  0.000541  ( 0.015180  0.013870  0.010855)
 26:    839.55   0.014064   71.07  0.005228  (-0.056368 -0.013905  0.043091)
 27:    873.88   0.042058  212.54  0.015019  ( 0.075492  0.009720  0.096050)
 28:    897.69   0.002093   10.58  0.000727  (-0.012332 -0.009743 -0.021920)
 29:    907.41   0.027385  138.39  0.009418  (-0.044905 -0.013116 -0.085026)
 30:    943.43   0.004062   20.53  0.001344  (-0.008728 -0.035591 -0.000916)
 31:    952.42   0.122933  621.25  0.040279  ( 0.112945 -0.151663 -0.067239)
 32:   1022.66   0.028685  144.96  0.008753  (-0.056694  0.060879  0.042810)
 33:   1104.56   0.011551   58.38  0.003264  ( 0.041785 -0.029986 -0.024868)
 34:   1135.01   0.022760  115.02  0.006258  (-0.070092 -0.026901 -0.024925)
 35:   1172.27   0.020753  104.88  0.005525  (-0.003563  0.074030  0.005610)
 36:   1198.39   0.076392  386.05  0.019893  ( 0.005828 -0.133665  0.044637)
 37:   1223.05   0.005112   25.83  0.001304  (-0.003126  0.033103  0.014099)
 38:   1238.12   0.003290   16.62  0.000829  (-0.023843 -0.000451 -0.016138)
 39:   1310.63   0.003507   17.72  0.000835  ( 0.013105  0.025270  0.004976)
 40:   1325.46   0.008964   45.30  0.002111  (-0.002880  0.005776  0.045485)
 41:   1341.35   0.021694  109.63  0.005047  (-0.028957 -0.061731 -0.019949)
 42:   1442.34   0.005794   29.28  0.001254  (-0.011692 -0.033381  0.001636)
 43:   1735.62   0.051482  260.17  0.009256  ( 0.021599  0.062442  0.069934)
 44:   2849.79   0.010048   50.78  0.001100  ( 0.005194  0.029834 -0.013536)
 45:   2886.29   0.002144   10.83  0.000232  (-0.015093  0.001134 -0.001631)
 46:   2931.57   0.006528   32.99  0.000695  ( 0.017672  0.017576  0.008582)
 47:   2966.60   0.002142   10.83  0.000225  (-0.001941  0.002104  0.014736)
 48:   3382.65   0.033723  170.42  0.003111  (-0.040162  0.026302  0.028394)
 49:   3483.94   0.022861  115.53  0.002048  ( 0.029931 -0.021417  0.026327)
 50:   3619.00   0.009194   46.46  0.000793  (-0.024171 -0.012508 -0.007216)

--------------------------
THERMOCHEMISTRY AT 298.15K
--------------------------

Temperature         ... 298.15 K
Pressure            ... 1.00 atm
Total Mass          ... 170.06 AMU

Throughout the following assumptions are being made:
  (1) The electronic state is orbitally nondegenerate
  (2) There are no thermally accessible electronically excited states
  (3) Hindered rotations indicated by low frequency modes are not
      treated as such but are treated as vibrations and this may
      cause some error
  (4) All equations used are the standard statistical mechanics
      equations for an ideal gas
  (5) All vibrations are strictly harmonic

freq.      73.21  E(vib)   ...       0.49
freq.     116.94  E(vib)   ...       0.44
freq.     128.79  E(vib)   ...       0.43
freq.     139.80  E(vib)   ...       0.41
freq.     193.58  E(vib)   ...       0.36
freq.     200.94  E(vib)   ...       0.35
freq.     251.65  E(vib)   ...       0.30
freq.     271.08  E(vib)   ...       0.29
freq.     305.25  E(vib)   ...       0.26
freq.     346.82  E(vib)   ...       0.23
freq.     375.89  E(vib)   ...       0.21
freq.     401.84  E(vib)   ...       0.19
freq.     407.79  E(vib)   ...       0.19
freq.     423.16  E(vib)   ...       0.18
freq.     476.61  E(vib)   ...       0.15
freq.     548.02  E(vib)   ...       0.12
freq.     557.87  E(vib)   ...       0.12
freq.     692.92  E(vib)   ...       0.07
freq.     728.98  E(vib)   ...       0.06
freq.     828.40  E(vib)   ...       0.04
freq.     839.55  E(vib)   ...       0.04
freq.     873.88  E(vib)   ...       0.04
freq.     897.69  E(vib)   ...       0.03
freq.     907.41  E(vib)   ...       0.03
freq.     943.43  E(vib)   ...       0.03
freq.     952.42  E(vib)   ...       0.03
freq.    1022.66  E(vib)   ...       0.02
freq.    1104.56  E(vib)   ...       0.02
freq.    1135.01  E(vib)   ...       0.01
freq.    1172.27  E(vib)   ...       0.01
freq.    1198.39  E(vib)   ...       0.01
freq.    1223.05  E(vib)   ...       0.01
freq.    1238.12  E(vib)   ...       0.01
freq.    1310.63  E(vib)   ...       0.01
freq.    1325.46  E(vib)   ...       0.01
freq.    1341.35  E(vib)   ...       0.01
freq.    1442.34  E(vib)   ...       0.00
freq.    1735.62  E(vib)   ...       0.00
freq.    2849.79  E(vib)   ...       0.00
freq.    2886.29  E(vib)   ...       0.00
freq.    2931.57  E(vib)   ...       0.00
freq.    2966.60  E(vib)   ...       0.00
freq.    3382.65  E(vib)   ...       0.00
freq.    3483.94  E(vib)   ...       0.00
freq.    3619.00  E(vib)   ...       0.00

------------
INNER ENERGY
------------

The inner energy is: U= E(el) + E(ZPE) + E(vib) + E(rot) + E(trans)
    E(el)   - is the total energy from the electronic structure calculation
              = E(kin-el) + E(nuc-el) + E(el-el) + E(nuc-nuc)
    E(ZPE)  - the the zero temperature vibrational energy from the frequency calculation
    E(vib)  - the the finite temperature correction to E(ZPE) due to population
              of excited vibrational states
    E(rot)  - is the rotational thermal energy
    E(trans)- is the translational thermal energy

Summary of contributions to the inner energy U:
Electronic energy                ...    -37.03976741 Eh
Zero point energy                ...      0.11448528 Eh      71.84 kcal/mol
Thermal vibrational correction   ...      0.00832648 Eh       5.22 kcal/mol
Thermal rotational correction    ...      0.00141627 Eh       0.89 kcal/mol
Thermal translational correction ...      0.00141627 Eh       0.89 kcal/mol
-----------------------------------------------------------------------
Total thermal energy                    -36.91412311 Eh

Summary of corrections to the electronic energy:
(perhaps to be used in another calculation)
Total thermal correction                  0.01115902 Eh       7.00 kcal/mol
Non-thermal (ZPE) correction              0.11448528 Eh      71.84 kcal/mol
-----------------------------------------------------------------------
Total correction                          0.12564430 Eh      78.84 kcal/mol

--------
ENTHALPY
--------

The enthalpy is H = U + kB*T
                kB is Boltzmann's constant
Total free energy                 ...    -36.91412311 Eh
Thermal Enthalpy correction       ...      0.00094421 Eh       0.59 kcal/mol
-----------------------------------------------------------------------
Total Enthalpy                    ...    -36.91317890 Eh

Note: Only C1 symmetry has been detected, increase convergence thresholds
      if your molecule has a higher symmetry. Symmetry factor of 1.0 is
      used for the rotational entropy correction.

Note: Rotational entropy computed according to Herzberg
Infrared and Raman Spectra, Chapter V,1, Van Nostrand Reinhold, 1945
Point Group:  C1, Symmetry Number:   1
Rotational constants in cm-1:     0.062729     0.036044     0.031602

Vibrational entropy computed according to the QRRHO of S. Grimme
Chem.Eur.J. 2012 18 9955

-------
ENTROPY
-------

The entropy contributions are T*S = T*(S(el)+S(vib)+S(rot)+S(trans))
     S(el)   - electronic entropy
     S(vib)  - vibrational entropy
     S(rot)  - rotational entropy
     S(trans)- translational entropy
The entropies will be listed as multiplied by the temperature to get
units of energy

Electronic entropy                ...      0.00000000 Eh      0.00 kcal/mol
Vibrational entropy               ...      0.01420280 Eh      8.91 kcal/mol
Rotational entropy                ...      0.01401761 Eh      8.80 kcal/mol
Translational entropy             ...      0.01962323 Eh     12.31 kcal/mol
-----------------------------------------------------------------------
Final entropy term                ...      0.04784364 Eh     30.02 kcal/mol

In case the symmetry of your molecule has not been determined correctly
or in case you have a reason to use a different symmetry number we print
out the resulting rotational entropy values for sn=1,12 :
 --------------------------------------------------------
|  sn= 1 | S(rot)=       0.01401761 Eh      8.80 kcal/mol|
|  sn= 2 | S(rot)=       0.01336315 Eh      8.39 kcal/mol|
|  sn= 3 | S(rot)=       0.01298032 Eh      8.15 kcal/mol|
|  sn= 4 | S(rot)=       0.01270869 Eh      7.97 kcal/mol|
|  sn= 5 | S(rot)=       0.01249801 Eh      7.84 kcal/mol|
|  sn= 6 | S(rot)=       0.01232586 Eh      7.73 kcal/mol|
|  sn= 7 | S(rot)=       0.01218031 Eh      7.64 kcal/mol|
|  sn= 8 | S(rot)=       0.01205424 Eh      7.56 kcal/mol|
|  sn= 9 | S(rot)=       0.01194303 Eh      7.49 kcal/mol|
|  sn=10 | S(rot)=       0.01184355 Eh      7.43 kcal/mol|
|  sn=11 | S(rot)=       0.01175356 Eh      7.38 kcal/mol|
|  sn=12 | S(rot)=       0.01167140 Eh      7.32 kcal/mol|
 --------------------------------------------------------

-------------------
GIBBS FREE ENERGY
-------------------

                             ****ORCA TERMINATED NORMALLY****
TOTAL RUN TIME: 0 days 0 hours 4 minutes 11 seconds 162 msec
