                         Program Version 5.0.3 -  RELEASE  -
|  1> ! XTB2 opt numfreq
|  2> * XYZ 0 1
|  3> O -3.6485 1.4324 0.9209
|  4> C -2.5701 1.5817 0.3644
|  5> O -1.5395 2.1808 0.9889
|  6> C -2.2317 1.1233 -1.0453
|  7> O -3.2911 1.5398 -1.9249
|  8> C -2.0890 -0.4126 -1.0810
|  9> O -1.8848 -0.8578 -2.4334
| 10> C -0.9729 -1.0020 -0.1828
| 11> O -1.3228 -0.9250 1.1993
| 12> C 0.4102 -0.3556 -0.4077
| 13> O 0.7058 -0.3048 -1.8127
| 14> C 1.5159 -1.1392 0.3108
| 15> O 2.7690 -0.5054 0.0609
| 16> P 3.3337 0.4614 1.2034
| 17> O 2.4026 1.4989 1.7212
| 18> O 4.7072 0.9977 0.6019
| 19> O 3.8644 -0.5171 2.3457
| 20> H -1.8702 2.3996 1.8848
| 21> H -1.3305 1.6269 -1.4065
| 22> H -4.0963 1.0663 -1.6481
| 23> H -3.0462 -0.8513 -0.7716
| 24> H -0.9829 -0.5625 -2.6871
| 25> H -0.8853 -2.0675 -0.4346
| 26> H -2.1420 -1.4387 1.3293
| 27> H 0.4203 0.6755 -0.0417
| 28> H 1.6495 -0.0528 -1.8747
| 29> H 1.3297 -1.2142 1.3873
| 30> H 1.5915 -2.1526 -0.0967
| 31> H 5.2869 0.2623 0.3355
| 32> H 3.9170 -0.0375 3.1946
| 33> *
| 34>
| 35>                          ****END OF INPUT****
FINAL SINGLE POINT ENERGY       -62.800320616740
FINAL SINGLE POINT ENERGY       -62.809457410900
FINAL SINGLE POINT ENERGY       -62.812507532870
FINAL SINGLE POINT ENERGY       -62.813231589650
FINAL SINGLE POINT ENERGY       -62.813540186560
FINAL SINGLE POINT ENERGY       -62.813686283680
FINAL SINGLE POINT ENERGY       -62.813814634680
FINAL SINGLE POINT ENERGY       -62.813886262220
FINAL SINGLE POINT ENERGY       -62.813917010720
FINAL SINGLE POINT ENERGY       -62.813950351140
FINAL SINGLE POINT ENERGY       -62.823493225060
FINAL SINGLE POINT ENERGY       -62.823528339680
FINAL SINGLE POINT ENERGY       -62.823550209840
FINAL SINGLE POINT ENERGY       -62.823568111230
FINAL SINGLE POINT ENERGY       -62.823578592030
FINAL SINGLE POINT ENERGY       -62.823585465980
FINAL SINGLE POINT ENERGY       -62.823590786960
FINAL SINGLE POINT ENERGY       -62.823594044200
FINAL SINGLE POINT ENERGY       -62.823595843560
                    ***********************HURRAY********************

CARTESIAN COORDINATES (ANGSTROEM)
---------------------------------
  O    -1.765030    1.493417    1.407534
  C    -1.477732    1.733575    0.256514
  O    -0.612680    2.647722   -0.116117
  C    -2.085821    0.951955   -0.910535
  O    -3.420051    1.333900   -1.113454
  C    -1.979750   -0.572645   -0.622095
  O    -2.377376   -1.310061   -1.738793
  C    -0.592673   -1.052505   -0.122653
  O    -0.418444   -0.918242    1.270051
  C     0.581600   -0.414489   -0.898612
  O     0.320787   -0.609856   -2.272886
  C     1.922995   -1.043176   -0.469486
  O     2.775653   -0.133971    0.190193
  P     2.312275    0.560241    1.578318
  O     1.278088    1.586083    1.454572
  O     3.688635    1.112654    2.089402
  O     1.996608   -0.650592    2.559429
  H    -0.097615    2.970197    0.650402
  H    -1.565471    1.202742   -1.838659
  H    -3.943608    1.083833   -0.341770
  H    -2.706329   -0.815540    0.165620
  H    -1.711000   -1.188296   -2.429385
  H    -0.564228   -2.133020   -0.323729
  H    -0.840281   -0.095580    1.576214
  H     0.646127    0.654850   -0.670671
  H     0.998457   -0.156756   -2.787286
  H     1.743192   -1.911994    0.172392
  H     2.472926   -1.371806   -1.357525
  H     4.342446    0.423862    2.207241
  H     1.078204   -0.926498    2.435875

FINAL SINGLE POINT ENERGY       -62.823596689880

VIBRATIONAL FREQUENCIES
-----------------------

Scaling factor for frequencies =  1.000000000 (already applied!)

   0:         0.00 cm**-1
   1:         0.00 cm**-1
   2:         0.00 cm**-1
   3:         0.00 cm**-1
   4:         0.00 cm**-1
   5:         0.00 cm**-1
   6:        47.82 cm**-1
   7:        56.81 cm**-1
   8:        70.09 cm**-1
   9:        85.01 cm**-1
  10:        87.93 cm**-1
  11:       113.15 cm**-1
  12:       115.90 cm**-1
  13:       144.60 cm**-1
  14:       164.98 cm**-1
  15:       182.01 cm**-1
  16:       208.85 cm**-1
  17:       215.88 cm**-1
  18:       244.16 cm**-1
  19:       271.37 cm**-1
  20:       284.35 cm**-1
  21:       312.10 cm**-1
  22:       318.91 cm**-1
  23:       324.07 cm**-1
  24:       328.56 cm**-1
  25:       345.71 cm**-1
  26:       371.24 cm**-1
  27:       383.87 cm**-1
  28:       397.30 cm**-1
  29:       419.99 cm**-1
  30:       427.28 cm**-1
  31:       443.63 cm**-1
  32:       476.78 cm**-1
  33:       488.29 cm**-1
  34:       509.80 cm**-1
  35:       527.79 cm**-1
  36:       552.88 cm**-1
  37:       566.06 cm**-1
  38:       594.88 cm**-1
  39:       631.13 cm**-1
  40:       663.64 cm**-1
  41:       719.32 cm**-1
  42:       742.67 cm**-1
  43:       816.84 cm**-1
  44:       856.48 cm**-1
  45:       877.06 cm**-1
  46:       916.32 cm**-1
  47:       927.56 cm**-1
  48:       950.83 cm**-1
  49:       964.99 cm**-1
  50:      1019.47 cm**-1
  51:      1022.51 cm**-1
  52:      1071.73 cm**-1
  53:      1092.73 cm**-1
  54:      1095.83 cm**-1
  55:      1100.01 cm**-1
  56:      1105.92 cm**-1
  57:      1123.36 cm**-1
  58:      1136.59 cm**-1
  59:      1168.63 cm**-1
  60:      1184.79 cm**-1
  61:      1204.92 cm**-1
  62:      1218.71 cm**-1
  63:      1230.63 cm**-1
  64:      1254.49 cm**-1
  65:      1257.87 cm**-1
  66:      1274.49 cm**-1
  67:      1292.67 cm**-1
  68:      1302.65 cm**-1
  69:      1315.68 cm**-1
  70:      1339.53 cm**-1
  71:      1343.79 cm**-1
  72:      1348.63 cm**-1
  73:      1353.35 cm**-1
  74:      1358.85 cm**-1
  75:      1457.33 cm**-1
  76:      1752.43 cm**-1
  77:      2906.57 cm**-1
  78:      2915.80 cm**-1
  79:      2924.08 cm**-1
  80:      2942.14 cm**-1
  81:      2954.91 cm**-1
  82:      2981.15 cm**-1
  83:      3317.43 cm**-1
  84:      3344.15 cm**-1
  85:      3404.46 cm**-1
  86:      3486.07 cm**-1
  87:      3515.54 cm**-1
  88:      3539.92 cm**-1
  89:      3603.49 cm**-1

IR SPECTRUM
-----------

 Mode   freq       eps      Int      T**2         TX        TY        TZ
       cm**-1   L/(mol*cm) km/mol    a.u.
----------------------------------------------------------------------------
  6:     47.82   0.002179   11.01  0.014221  (-0.091250  0.045629  0.061748)
  7:     56.81   0.000808    4.08  0.004437  ( 0.042885 -0.050649  0.005665)
  8:     70.09   0.000780    3.94  0.003475  ( 0.055094  0.012292 -0.016979)
  9:     85.01   0.000455    2.30  0.001671  (-0.032949  0.023857 -0.004029)
 10:     87.93   0.002467   12.47  0.008756  ( 0.061432  0.008241  0.070098)
 11:    113.15   0.000928    4.69  0.002560  (-0.043165 -0.024465 -0.009894)
 12:    115.90   0.002313   11.69  0.006228  ( 0.050143  0.055552  0.025051)
 13:    144.60   0.000850    4.30  0.001835  ( 0.036686 -0.019936  0.009555)
 14:    164.98   0.000653    3.30  0.001235  (-0.019026 -0.014375 -0.025807)
 15:    182.01   0.000468    2.36  0.000802  (-0.020637 -0.000645 -0.019388)
 16:    208.85   0.002611   13.20  0.003902  ( 0.015901  0.060271 -0.004009)
 17:    215.88   0.002921   14.76  0.004223  ( 0.051530  0.011618  0.037848)
 18:    244.16   0.007968   40.27  0.010184  (-0.044376 -0.024649  0.087219)
 19:    271.37   0.008689   43.91  0.009992  (-0.013993  0.032203 -0.093592)
 20:    284.35   0.000829    4.19  0.000909  ( 0.003752  0.029325 -0.005955)
 21:    312.10   0.004969   25.11  0.004968  (-0.018452  0.041572 -0.053848)
 22:    318.91   0.008766   44.30  0.008578  ( 0.048488 -0.001795 -0.078888)
 23:    324.07   0.006937   35.06  0.006680  ( 0.068227  0.031502  0.032129)
 24:    328.56   0.012987   65.63  0.012335  (-0.013865  0.107783 -0.022929)
 25:    345.71   0.020570  103.95  0.018568  (-0.016091 -0.128161 -0.043407)
 26:    371.24   0.004192   21.18  0.003523  ( 0.016178 -0.057101  0.001117)
 27:    383.87   0.007542   38.12  0.006131  (-0.061860  0.017974  0.044516)
 28:    397.30   0.004243   21.44  0.003333  ( 0.017185 -0.049094  0.025041)
 29:    419.99   0.001176    5.94  0.000874  (-0.015857 -0.024942  0.000161)
 30:    427.28   0.010014   50.61  0.007314  ( 0.016988  0.065608 -0.052162)
 31:    443.63   0.006401   32.35  0.004502  (-0.053724 -0.031217 -0.025327)
 32:    476.78   0.029787  150.53  0.019496  ( 0.074379 -0.092531  0.073497)
 33:    488.29   0.027463  138.79  0.017551  (-0.088999  0.015326  0.096931)
 34:    509.80   0.013832   69.90  0.008467  (-0.084561  0.026076 -0.025228)
 35:    527.79   0.029029  146.70  0.017164  (-0.031329 -0.119905 -0.042485)
 36:    552.88   0.009085   45.91  0.005128  ( 0.036708  0.022705  0.057138)
 37:    566.06   0.004777   24.14  0.002633  ( 0.048615  0.007278 -0.014733)
 38:    594.88   0.049826  251.80  0.026138  (-0.112397  0.108904  0.040552)
 39:    631.13   0.011155   56.37  0.005516  (-0.058007  0.020401 -0.041650)
 40:    663.64   0.024043  121.51  0.011306  (-0.032706  0.099134  0.020213)
 41:    719.32   0.030169  152.46  0.013088  (-0.047067  0.047654  0.092746)
 42:    742.67   0.023306  117.78  0.009793  (-0.075105  0.061774 -0.018343)
 43:    816.84   0.025715  129.95  0.009824  (-0.015346  0.007871  0.097605)
 44:    856.48   0.008169   41.28  0.002976  (-0.033563  0.000617  0.043006)
 45:    877.06   0.009218   46.58  0.003280  ( 0.025488  0.012647 -0.049701)
 46:    916.32   0.005788   29.25  0.001971  (-0.034669  0.011252 -0.025349)
 47:    927.56   0.110397  557.90  0.037141  ( 0.120383  0.145712  0.037649)
 48:    950.83   0.001528    7.72  0.000502  ( 0.005295 -0.010153  0.019247)
 49:    964.99   0.093757  473.81  0.030319  ( 0.064677 -0.056131  0.151610)
 50:   1019.47   0.002276   11.50  0.000697  ( 0.019954  0.016826  0.003922)
 51:   1022.51   0.001729    8.74  0.000528  ( 0.011840 -0.019676 -0.000568)
 52:   1071.73   0.011216   56.68  0.003266  (-0.013327  0.054639 -0.010142)
 53:   1092.73   0.002253   11.39  0.000643  (-0.003688 -0.020545 -0.014414)
 54:   1095.83   0.015889   80.29  0.004525  (-0.046952 -0.021181 -0.043261)
 55:   1100.01   0.024665  124.65  0.006997  (-0.011888  0.040528  0.072204)
 56:   1105.92   0.049459  249.94  0.013956  ( 0.089301  0.041125  0.065500)
 57:   1123.36   0.001469    7.42  0.000408  (-0.015810  0.009103 -0.008678)
 58:   1136.59   0.004011   20.27  0.001101  ( 0.011734 -0.002927 -0.030905)
 59:   1168.63   0.026879  135.84  0.007178  ( 0.022412  0.064932 -0.049590)
 60:   1184.79   0.002348   11.87  0.000618  (-0.023069 -0.003295  0.008685)
 61:   1204.92   0.001896    9.58  0.000491  (-0.012842 -0.015533  0.009218)
 62:   1218.71   0.005227   26.41  0.001338  (-0.011544  0.009810 -0.033300)
 63:   1230.63   0.020020  101.17  0.005077  (-0.042231 -0.025435 -0.051442)
 64:   1254.49   0.021319  107.73  0.005303  ( 0.067890 -0.009628 -0.024522)
 65:   1257.87   0.012419   62.76  0.003081  ( 0.037215 -0.039149  0.012781)
 66:   1274.49   0.052618  265.91  0.012884  (-0.074756  0.072143 -0.045723)
 67:   1292.67   0.010471   52.92  0.002528  (-0.046136 -0.012782 -0.015360)
 68:   1302.65   0.026629  134.57  0.006379  (-0.020508 -0.071334 -0.029497)
 69:   1315.68   0.005092   25.73  0.001208  (-0.002004  0.030642 -0.016275)
 70:   1339.53   0.021413  108.22  0.004989  ( 0.040150 -0.025460  0.052234)
 71:   1343.79   0.005886   29.75  0.001367  ( 0.033648  0.004803  0.014548)
 72:   1348.63   0.021915  110.75  0.005071  ( 0.023773  0.058453  0.033001)
 73:   1353.35   0.003433   17.35  0.000792  ( 0.017628 -0.021218  0.005535)
 74:   1358.85   0.009940   50.23  0.002283  (-0.001565 -0.009181  0.046861)
 75:   1457.33   0.000209    1.06  0.000045  (-0.000994  0.006529 -0.001106)
 76:   1752.43   0.081941  414.10  0.014592  ( 0.043651  0.044250 -0.103577)
 77:   2906.57   0.007248   36.63  0.000778  (-0.001463 -0.027830 -0.001242)
 78:   2915.80   0.000186    0.94  0.000020  ( 0.002506  0.002075 -0.003056)
 79:   2924.08   0.001353    6.84  0.000144  ( 0.000834  0.011854 -0.001783)
 80:   2942.14   0.000085    0.43  0.000009  ( 0.000452  0.002485 -0.001611)
 81:   2954.91   0.003813   19.27  0.000403  ( 0.000439  0.019921  0.002380)
 82:   2981.15   0.000221    1.12  0.000023  (-0.002605 -0.000941  0.003928)
 83:   3317.43   0.023837  120.46  0.002242  ( 0.011037  0.017327  0.042664)
 84:   3344.15   0.040672  205.54  0.003795  ( 0.040312 -0.046217  0.005860)
 85:   3404.46   0.066017  333.62  0.006051  (-0.065337 -0.025590 -0.033579)
 86:   3486.07   0.011517   58.20  0.001031  ( 0.028525  0.007168 -0.012879)
 87:   3515.54   0.007547   38.14  0.000670  ( 0.003146  0.013476 -0.021872)
 88:   3539.92   0.008551   43.21  0.000754  ( 0.012170  0.023570 -0.007083)
 89:   3603.49   0.012996   65.68  0.001125  ( 0.030483 -0.012015  0.007205)

--------------------------
THERMOCHEMISTRY AT 298.15K
--------------------------

Temperature         ... 298.15 K
Pressure            ... 1.00 atm
Total Mass          ... 276.13 AMU

Throughout the following assumptions are being made:
  (1) The electronic state is orbitally nondegenerate
  (2) There are no thermally accessible electronically excited states
  (3) Hindered rotations indicated by low frequency modes are not
      treated as such but are treated as vibrations and this may
      cause some error
  (4) All equations used are the standard statistical mechanics
      equations for an ideal gas
  (5) All vibrations are strictly harmonic

freq.      47.82  E(vib)   ...       0.53
freq.      56.81  E(vib)   ...       0.51
freq.      70.09  E(vib)   ...       0.50
freq.      85.01  E(vib)   ...       0.48
freq.      87.93  E(vib)   ...       0.48
freq.     113.15  E(vib)   ...       0.45
freq.     115.90  E(vib)   ...       0.44
freq.     144.60  E(vib)   ...       0.41
freq.     164.98  E(vib)   ...       0.39
freq.     182.01  E(vib)   ...       0.37
freq.     208.85  E(vib)   ...       0.34
freq.     215.88  E(vib)   ...       0.34
freq.     244.16  E(vib)   ...       0.31
freq.     271.37  E(vib)   ...       0.29
freq.     284.35  E(vib)   ...       0.28
freq.     312.10  E(vib)   ...       0.25
freq.     318.91  E(vib)   ...       0.25
freq.     324.07  E(vib)   ...       0.25
freq.     328.56  E(vib)   ...       0.24
freq.     345.71  E(vib)   ...       0.23
freq.     371.24  E(vib)   ...       0.21
freq.     383.87  E(vib)   ...       0.20
freq.     397.30  E(vib)   ...       0.20
freq.     419.99  E(vib)   ...       0.18
freq.     427.28  E(vib)   ...       0.18
freq.     443.63  E(vib)   ...       0.17
freq.     476.78  E(vib)   ...       0.15
freq.     488.29  E(vib)   ...       0.15
freq.     509.80  E(vib)   ...       0.14
freq.     527.79  E(vib)   ...       0.13
freq.     552.88  E(vib)   ...       0.12
freq.     566.06  E(vib)   ...       0.11
freq.     594.88  E(vib)   ...       0.10
freq.     631.13  E(vib)   ...       0.09
freq.     663.64  E(vib)   ...       0.08
freq.     719.32  E(vib)   ...       0.07
freq.     742.67  E(vib)   ...       0.06
freq.     816.84  E(vib)   ...       0.05
freq.     856.48  E(vib)   ...       0.04
freq.     877.06  E(vib)   ...       0.04
freq.     916.32  E(vib)   ...       0.03
freq.     927.56  E(vib)   ...       0.03
freq.     950.83  E(vib)   ...       0.03
freq.     964.99  E(vib)   ...       0.03
freq.    1019.47  E(vib)   ...       0.02
freq.    1022.51  E(vib)   ...       0.02
freq.    1071.73  E(vib)   ...       0.02
freq.    1092.73  E(vib)   ...       0.02
freq.    1095.83  E(vib)   ...       0.02
freq.    1100.01  E(vib)   ...       0.02
freq.    1105.92  E(vib)   ...       0.02
freq.    1123.36  E(vib)   ...       0.01
freq.    1136.59  E(vib)   ...       0.01
freq.    1168.63  E(vib)   ...       0.01
freq.    1184.79  E(vib)   ...       0.01
freq.    1204.92  E(vib)   ...       0.01
freq.    1218.71  E(vib)   ...       0.01
freq.    1230.63  E(vib)   ...       0.01
freq.    1254.49  E(vib)   ...       0.01
freq.    1257.87  E(vib)   ...       0.01
freq.    1274.49  E(vib)   ...       0.01
freq.    1292.67  E(vib)   ...       0.01
freq.    1302.65  E(vib)   ...       0.01
freq.    1315.68  E(vib)   ...       0.01
freq.    1339.53  E(vib)   ...       0.01
freq.    1343.79  E(vib)   ...       0.01
freq.    1348.63  E(vib)   ...       0.01
freq.    1353.35  E(vib)   ...       0.01
freq.    1358.85  E(vib)   ...       0.01
freq.    1457.33  E(vib)   ...       0.00
freq.    1752.43  E(vib)   ...       0.00
freq.    2906.57  E(vib)   ...       0.00
freq.    2915.80  E(vib)   ...       0.00
freq.    2924.08  E(vib)   ...       0.00
freq.    2942.14  E(vib)   ...       0.00
freq.    2954.91  E(vib)   ...       0.00
freq.    2981.15  E(vib)   ...       0.00
freq.    3317.43  E(vib)   ...       0.00
freq.    3344.15  E(vib)   ...       0.00
freq.    3404.46  E(vib)   ...       0.00
freq.    3486.07  E(vib)   ...       0.00
freq.    3515.54  E(vib)   ...       0.00
freq.    3539.92  E(vib)   ...       0.00
freq.    3603.49  E(vib)   ...       0.00

------------
INNER ENERGY
------------

The inner energy is: U= E(el) + E(ZPE) + E(vib) + E(rot) + E(trans)
    E(el)   - is the total energy from the electronic structure calculation
              = E(kin-el) + E(nuc-el) + E(el-el) + E(nuc-nuc)
    E(ZPE)  - the the zero temperature vibrational energy from the frequency calculation
    E(vib)  - the the finite temperature correction to E(ZPE) due to population
              of excited vibrational states
    E(rot)  - is the rotational thermal energy
    E(trans)- is the translational thermal energy

Summary of contributions to the inner energy U:
Electronic energy                ...    -62.82359669 Eh
Zero point energy                ...      0.21508683 Eh     134.97 kcal/mol
Thermal vibrational correction   ...      0.01622162 Eh      10.18 kcal/mol
Thermal rotational correction    ...      0.00141627 Eh       0.89 kcal/mol
Thermal translational correction ...      0.00141627 Eh       0.89 kcal/mol
-----------------------------------------------------------------------
Total thermal energy                    -62.58945569 Eh

Summary of corrections to the electronic energy:
(perhaps to be used in another calculation)
Total thermal correction                  0.01905416 Eh      11.96 kcal/mol
Non-thermal (ZPE) correction              0.21508683 Eh     134.97 kcal/mol
-----------------------------------------------------------------------
Total correction                          0.23414100 Eh     146.93 kcal/mol

--------
ENTHALPY
--------

The enthalpy is H = U + kB*T
                kB is Boltzmann's constant
Total free energy                 ...    -62.58945569 Eh
Thermal Enthalpy correction       ...      0.00094421 Eh       0.59 kcal/mol
-----------------------------------------------------------------------
Total Enthalpy                    ...    -62.58851149 Eh

Note: Only C1 symmetry has been detected, increase convergence thresholds
      if your molecule has a higher symmetry. Symmetry factor of 1.0 is
      used for the rotational entropy correction.

Note: Rotational entropy computed according to Herzberg
Infrared and Raman Spectra, Chapter V,1, Van Nostrand Reinhold, 1945
Point Group:  C1, Symmetry Number:   1
Rotational constants in cm-1:     0.024452     0.010506     0.009031

Vibrational entropy computed according to the QRRHO of S. Grimme
Chem.Eur.J. 2012 18 9955

-------
ENTROPY

                             ****ORCA TERMINATED NORMALLY****
TOTAL RUN TIME: 0 days 0 hours 7 minutes 28 seconds 521 msec
