                         Program Version 5.0.3 -  RELEASE  -
|  1> ! XTB2 opt numfreq
|  2> * XYZ 0 1
|  3> O 4.0999 -1.1928 -2.4792
|  4> P 3.4589 -0.7688 -1.2038
|  5> O 3.3282 0.8131 -1.0608
|  6> O 4.3382 -1.1604 0.0696
|  7> O 2.0135 -1.3714 -0.8969
|  8> C 1.2952 -0.9101 0.2421
|  9> C 0.2489 0.1389 -0.1665
| 10> O -0.6134 -0.3642 -1.2124
| 11> C -1.8580 -0.8829 -0.7679
| 12> O -1.6404 -1.9682 0.1156
| 13> C -2.7098 0.2182 -0.0954
| 14> O -3.5409 0.9025 -1.0534
| 15> C -1.8312 1.2760 0.5873
| 16> O -2.5188 1.8632 1.7047
| 17> C -0.5188 0.6615 1.0621
| 18> O 0.2523 1.6441 1.7597
| 19> H 4.0979 1.2600 -1.4554
| 20> H 4.7686 -2.0240 -0.0681
| 21> H 0.8165 -1.7894 0.6819
| 22> H 1.9816 -0.5035 0.9927
| 23> H 0.7861 0.9736 -0.6311
| 24> H -2.3912 -1.2644 -1.6459
| 25> H -1.3761 -2.7113 -0.4554
| 26> H -3.3979 -0.2340 0.6279
| 27> H -2.9690 1.1662 -1.7989
| 28> H -1.6203 2.1116 -0.0924
| 29> H -3.3875 2.1525 1.3636
| 30> H -0.7233 -0.1389 1.7831
| 31> H -0.3891 2.1028 2.3406
| 32> *
| 33>
| 34>                          ****END OF INPUT****
FINAL SINGLE POINT ENERGY       -58.737439788030
FINAL SINGLE POINT ENERGY       -58.744931988100
FINAL SINGLE POINT ENERGY       -58.747772500750
FINAL SINGLE POINT ENERGY       -58.748463817710
FINAL SINGLE POINT ENERGY       -58.748841561610
FINAL SINGLE POINT ENERGY       -58.749120411930
FINAL SINGLE POINT ENERGY       -58.749402289860
FINAL SINGLE POINT ENERGY       -58.749686779120
FINAL SINGLE POINT ENERGY       -58.749962719150
FINAL SINGLE POINT ENERGY       -58.750248388900
FINAL SINGLE POINT ENERGY       -58.761021419450
FINAL SINGLE POINT ENERGY       -58.761504374940
FINAL SINGLE POINT ENERGY       -58.761703882470
FINAL SINGLE POINT ENERGY       -58.761860829720
FINAL SINGLE POINT ENERGY       -58.761912884580
FINAL SINGLE POINT ENERGY       -58.761936437190
FINAL SINGLE POINT ENERGY       -58.761942472220
FINAL SINGLE POINT ENERGY       -58.761947818880
FINAL SINGLE POINT ENERGY       -58.761949993970
                    ***********************HURRAY********************

CARTESIAN COORDINATES (ANGSTROEM)
---------------------------------
  O     1.447003   -2.390722   -1.565462
  P     2.404925   -1.490607   -0.906589
  O     2.845623   -0.206724   -1.737931
  O     3.804610   -2.180256   -0.634797
  O     2.001752   -1.027337    0.564515
  C     1.829352    0.329884    0.893052
  C     0.475983    0.853210    0.377932
  O     0.270264    0.386346   -0.950872
  C    -0.920786   -0.366243   -1.195323
  O    -0.931291   -1.601937   -0.605203
  C    -2.160622    0.421839   -0.738659
  O    -2.441349    1.474680   -1.625187
  C    -1.994032    0.929441    0.713369
  O    -3.012168    0.488319    1.578231
  C    -0.663374    0.465227    1.320316
  O    -0.430352    1.107517    2.548791
  H     2.068646    0.255296   -2.059327
  H     3.885096   -2.973928   -1.160937
  H     1.843045    0.400955    1.982182
  H     2.642012    0.925981    0.469661
  H     0.525467    1.952530    0.349175
  H    -0.930516   -0.436785   -2.297382
  H    -0.148272   -2.103449   -0.925236
  H    -3.015317   -0.260041   -0.786981
  H    -1.632303    1.978589   -1.775605
  H    -1.986273    2.034324    0.684895
  H    -3.868186    0.701584    1.191002
  H    -0.693828   -0.624254    1.448427
  H    -1.215009    0.956461    3.091341

FINAL SINGLE POINT ENERGY       -58.761949690740

VIBRATIONAL FREQUENCIES
-----------------------

Scaling factor for frequencies =  1.000000000 (already applied!)

   0:         0.00 cm**-1
   1:         0.00 cm**-1
   2:         0.00 cm**-1
   3:         0.00 cm**-1
   4:         0.00 cm**-1
   5:         0.00 cm**-1
   6:        21.73 cm**-1
   7:        59.53 cm**-1
   8:        81.24 cm**-1
   9:        86.46 cm**-1
  10:       130.64 cm**-1
  11:       137.94 cm**-1
  12:       153.85 cm**-1
  13:       176.98 cm**-1
  14:       204.84 cm**-1
  15:       233.04 cm**-1
  16:       248.04 cm**-1
  17:       280.83 cm**-1
  18:       286.87 cm**-1
  19:       311.62 cm**-1
  20:       318.87 cm**-1
  21:       332.48 cm**-1
  22:       341.69 cm**-1
  23:       362.14 cm**-1
  24:       382.09 cm**-1
  25:       392.17 cm**-1
  26:       409.32 cm**-1
  27:       416.34 cm**-1
  28:       427.88 cm**-1
  29:       437.10 cm**-1
  30:       466.10 cm**-1
  31:       479.30 cm**-1
  32:       509.38 cm**-1
  33:       528.76 cm**-1
  34:       588.78 cm**-1
  35:       664.64 cm**-1
  36:       728.13 cm**-1
  37:       738.59 cm**-1
  38:       789.65 cm**-1
  39:       820.20 cm**-1
  40:       855.07 cm**-1
  41:       865.74 cm**-1
  42:       903.74 cm**-1
  43:       911.17 cm**-1
  44:       925.97 cm**-1
  45:       934.17 cm**-1
  46:       985.22 cm**-1
  47:      1033.58 cm**-1
  48:      1050.97 cm**-1
  49:      1070.11 cm**-1
  50:      1079.56 cm**-1
  51:      1101.77 cm**-1
  52:      1107.95 cm**-1
  53:      1119.39 cm**-1
  54:      1126.41 cm**-1
  55:      1141.79 cm**-1
  56:      1165.23 cm**-1
  57:      1193.77 cm**-1
  58:      1211.59 cm**-1
  59:      1224.55 cm**-1
  60:      1227.92 cm**-1
  61:      1234.04 cm**-1
  62:      1271.88 cm**-1
  63:      1275.08 cm**-1
  64:      1280.50 cm**-1
  65:      1284.21 cm**-1
  66:      1311.74 cm**-1
  67:      1316.78 cm**-1
  68:      1320.15 cm**-1
  69:      1334.07 cm**-1
  70:      1353.20 cm**-1
  71:      1354.25 cm**-1
  72:      1363.33 cm**-1
  73:      1443.10 cm**-1
  74:      2826.35 cm**-1
  75:      2842.49 cm**-1
  76:      2869.63 cm**-1
  77:      2924.17 cm**-1
  78:      2947.44 cm**-1
  79:      2965.85 cm**-1
  80:      2985.19 cm**-1
  81:      3167.80 cm**-1
  82:      3519.29 cm**-1
  83:      3523.27 cm**-1
  84:      3547.89 cm**-1
  85:      3560.85 cm**-1
  86:      3628.95 cm**-1

IR SPECTRUM
-----------

 Mode   freq       eps      Int      T**2         TX        TY        TZ
       cm**-1   L/(mol*cm) km/mol    a.u.
----------------------------------------------------------------------------
  6:     21.73   0.000519    2.62  0.007461  ( 0.000552 -0.065764 -0.055999)
  7:     59.53   0.000679    3.43  0.003559  ( 0.016570  0.048950 -0.029805)
  8:     81.24   0.000442    2.23  0.001697  ( 0.029534 -0.026340 -0.011454)
  9:     86.46   0.000695    3.51  0.002509  ( 0.009430 -0.001560  0.049165)
 10:    130.64   0.000585    2.95  0.001397  (-0.007361 -0.033183  0.015535)
 11:    137.94   0.002245   11.35  0.005080  (-0.036403  0.022560  0.056971)
 12:    153.85   0.001648    8.33  0.003343  ( 0.012201  0.052233 -0.021593)
 13:    176.98   0.012668   64.02  0.022337  (-0.064856 -0.094320  0.096096)
 14:    204.84   0.004366   22.07  0.006652  ( 0.056775  0.021776 -0.054357)
 15:    233.04   0.000639    3.23  0.000856  (-0.027684 -0.003905  0.008599)
 16:    248.04   0.001025    5.18  0.001290  ( 0.021866  0.009675  0.026801)
 17:    280.83   0.001423    7.19  0.001581  ( 0.014592  0.005540 -0.036577)
 18:    286.87   0.001214    6.14  0.001321  (-0.030595 -0.005699 -0.018770)
 19:    311.62   0.002216   11.20  0.002220  (-0.021872 -0.033673  0.024644)
 20:    318.87   0.021019  106.22  0.020571  ( 0.033489  0.113715  0.080734)
 21:    332.48   0.029364  148.39  0.027561  (-0.082213  0.102252  0.101717)
 22:    341.69   0.001429    7.22  0.001305  (-0.002792  0.016457 -0.032039)
 23:    362.14   0.020675  104.48  0.017817  ( 0.002129  0.002896  0.133430)
 24:    382.09   0.010937   55.27  0.008933  (-0.066298  0.049343 -0.045855)
 25:    392.17   0.008950   45.23  0.007121  (-0.016493  0.058222 -0.058819)
 26:    409.32   0.006654   33.63  0.005073  (-0.002559  0.042405  0.057167)
 27:    416.34   0.042579  215.17  0.031914  (-0.082045  0.156715  0.024959)
 28:    427.88   0.016624   84.01  0.012125  (-0.054050 -0.043700  0.085402)
 29:    437.10   0.002600   13.14  0.001857  (-0.005990  0.041075  0.011554)
 30:    466.10   0.011833   59.80  0.007922  ( 0.029893 -0.083298 -0.009503)
 31:    479.30   0.008839   44.67  0.005755  ( 0.048743 -0.045386 -0.036320)
 32:    509.38   0.002657   13.43  0.001627  ( 0.032880 -0.019727  0.012538)
 33:    528.76   0.001651    8.34  0.000974  (-0.020213  0.005454  0.023153)
 34:    588.78   0.001636    8.27  0.000867  (-0.016906  0.021714  0.010474)
 35:    664.64   0.009092   45.95  0.004269  ( 0.006079  0.025110 -0.060010)
 36:    728.13   0.044251  223.62  0.018965  ( 0.121719  0.057905  0.028222)
 37:    738.59   0.015704   79.36  0.006635  ( 0.007769  0.050614  0.063347)
 38:    789.65   0.002817   14.24  0.001113  ( 0.002863  0.007915  0.032286)
 39:    820.20   0.029582  149.49  0.011255  ( 0.026438 -0.025774 -0.099457)
 40:    855.07   0.044097  222.85  0.016094  (-0.091146  0.080735 -0.035605)
 41:    865.74   0.039594  200.09  0.014272  (-0.021170 -0.103406  0.055954)
 42:    903.74   0.039925  201.76  0.013786  (-0.020512 -0.024731  0.112933)
 43:    911.17   0.019504   98.57  0.006680  (-0.053444  0.048070  0.038898)
 44:    925.97   0.019662   99.37  0.006626  (-0.080590  0.010649 -0.004288)
 45:    934.17   0.046410  234.54  0.015504  (-0.124235 -0.003574  0.007511)
 46:    985.22   0.010568   53.41  0.003347  ( 0.034721  0.022540  0.040420)
 47:   1033.58   0.000056    0.28  0.000017  ( 0.002695  0.002986 -0.000785)
 48:   1050.97   0.013938   70.44  0.004139  (-0.054248 -0.004738 -0.034253)
 49:   1070.11   0.001798    9.08  0.000524  ( 0.005684  0.021554  0.005225)
 50:   1079.56   0.007610   38.46  0.002200  (-0.002221 -0.022527  0.041078)
 51:   1101.77   0.031454  158.95  0.008909  (-0.017564 -0.081465  0.044315)
 52:   1107.95   0.016658   84.18  0.004692  ( 0.039975  0.007303  0.055142)
 53:   1119.39   0.030621  154.75  0.008537  ( 0.037050 -0.074821 -0.039568)
 54:   1126.41   0.026451  133.67  0.007328  (-0.007584  0.016201  0.083714)
 55:   1141.79   0.013967   70.58  0.003817  ( 0.008442 -0.059474  0.014453)
 56:   1165.23   0.004383   22.15  0.001174  (-0.012059  0.014389 -0.028661)
 57:   1193.77   0.003685   18.62  0.000963  (-0.003343  0.024432 -0.018848)
 58:   1211.59   0.020431  103.25  0.005262  (-0.059419 -0.041495  0.003148)
 59:   1224.55   0.002619   13.23  0.000667  (-0.002785  0.023516  0.010322)
 60:   1227.92   0.044594  225.36  0.011333  ( 0.060414  0.077050  0.041792)
 61:   1234.04   0.050313  254.26  0.012723  (-0.091983 -0.058191 -0.029598)
 62:   1271.88   0.000946    4.78  0.000232  (-0.002842  0.009776  0.011335)
 63:   1275.08   0.010294   52.02  0.002519  ( 0.027971  0.016911  0.038092)
 64:   1280.50   0.010796   54.56  0.002631  (-0.009029  0.022738 -0.045083)
 65:   1284.21   0.011278   56.99  0.002740  (-0.004984 -0.042628  0.029975)
 66:   1311.74   0.007069   35.72  0.001682  ( 0.019645  0.030629 -0.018912)
 67:   1316.78   0.011460   57.91  0.002716  (-0.050238 -0.011917 -0.007074)
 68:   1320.15   0.002040   10.31  0.000482  (-0.009342 -0.015301  0.012685)
 69:   1334.07   0.002424   12.25  0.000567  (-0.022461  0.007500 -0.002510)
 70:   1353.20   0.003447   17.42  0.000795  ( 0.004532  0.019183  0.020158)
 71:   1354.25   0.005153   26.04  0.001187  (-0.006840 -0.026484 -0.020959)
 72:   1363.33   0.013828   69.88  0.003165  (-0.018061 -0.015363  0.051019)
 73:   1443.10   0.000451    2.28  0.000098  (-0.004174  0.004603 -0.007677)
 74:   2826.35   0.010136   51.22  0.001119  ( 0.000135  0.029795 -0.015211)
 75:   2842.49   0.011344   57.33  0.001245  (-0.001362  0.002253 -0.035193)
 76:   2869.63   0.010774   54.45  0.001172  ( 0.001230 -0.030896 -0.014683)
 77:   2924.17   0.005389   27.23  0.000575  ( 0.000265 -0.023876 -0.002219)
 78:   2947.44   0.002021   10.22  0.000214  (-0.012050 -0.006183  0.005530)
 79:   2965.85   0.001945    9.83  0.000205  ( 0.002472  0.014079 -0.000557)
 80:   2985.19   0.002566   12.97  0.000268  ( 0.000729 -0.000129  0.016361)
 81:   3167.80   0.123378  623.50  0.012154  (-0.098728  0.036691  0.032568)
 82:   3519.29   0.010483   52.98  0.000930  ( 0.025798  0.007189 -0.014572)
 83:   3523.27   0.004617   23.33  0.000409  (-0.016427  0.006410 -0.009899)
 84:   3547.89   0.002597   13.13  0.000228  (-0.009400  0.011698 -0.001805)
 85:   3560.85   0.019946  100.80  0.001748  ( 0.034629 -0.023262  0.002787)
 86:   3628.95   0.011230   56.75  0.000966  (-0.005742  0.028583  0.010759)

--------------------------
THERMOCHEMISTRY AT 298.15K
--------------------------

Temperature         ... 298.15 K
Pressure            ... 1.00 atm
Total Mass          ... 260.13 AMU

Throughout the following assumptions are being made:
  (1) The electronic state is orbitally nondegenerate
  (2) There are no thermally accessible electronically excited states
  (3) Hindered rotations indicated by low frequency modes are not
      treated as such but are treated as vibrations and this may
      cause some error
  (4) All equations used are the standard statistical mechanics
      equations for an ideal gas
  (5) All vibrations are strictly harmonic

freq.      21.73  E(vib)   ...       0.56
freq.      59.53  E(vib)   ...       0.51
freq.      81.24  E(vib)   ...       0.48
freq.      86.46  E(vib)   ...       0.48
freq.     130.64  E(vib)   ...       0.43
freq.     137.94  E(vib)   ...       0.42
freq.     153.85  E(vib)   ...       0.40
freq.     176.98  E(vib)   ...       0.38
freq.     204.84  E(vib)   ...       0.35
freq.     233.04  E(vib)   ...       0.32
freq.     248.04  E(vib)   ...       0.31
freq.     280.83  E(vib)   ...       0.28
freq.     286.87  E(vib)   ...       0.27
freq.     311.62  E(vib)   ...       0.25
freq.     318.87  E(vib)   ...       0.25
freq.     332.48  E(vib)   ...       0.24
freq.     341.69  E(vib)   ...       0.23
freq.     362.14  E(vib)   ...       0.22
freq.     382.09  E(vib)   ...       0.21
freq.     392.17  E(vib)   ...       0.20
freq.     409.32  E(vib)   ...       0.19
freq.     416.34  E(vib)   ...       0.18
freq.     427.88  E(vib)   ...       0.18
freq.     437.10  E(vib)   ...       0.17
freq.     466.10  E(vib)   ...       0.16
freq.     479.30  E(vib)   ...       0.15
freq.     509.38  E(vib)   ...       0.14
freq.     528.76  E(vib)   ...       0.13
freq.     588.78  E(vib)   ...       0.10
freq.     664.64  E(vib)   ...       0.08
freq.     728.13  E(vib)   ...       0.06
freq.     738.59  E(vib)   ...       0.06
freq.     789.65  E(vib)   ...       0.05
freq.     820.20  E(vib)   ...       0.05
freq.     855.07  E(vib)   ...       0.04
freq.     865.74  E(vib)   ...       0.04
freq.     903.74  E(vib)   ...       0.03
freq.     911.17  E(vib)   ...       0.03
freq.     925.97  E(vib)   ...       0.03
freq.     934.17  E(vib)   ...       0.03
freq.     985.22  E(vib)   ...       0.02
freq.    1033.58  E(vib)   ...       0.02
freq.    1050.97  E(vib)   ...       0.02
freq.    1070.11  E(vib)   ...       0.02
freq.    1079.56  E(vib)   ...       0.02
freq.    1101.77  E(vib)   ...       0.02
freq.    1107.95  E(vib)   ...       0.02
freq.    1119.39  E(vib)   ...       0.01
freq.    1126.41  E(vib)   ...       0.01
freq.    1141.79  E(vib)   ...       0.01
freq.    1165.23  E(vib)   ...       0.01
freq.    1193.77  E(vib)   ...       0.01
freq.    1211.59  E(vib)   ...       0.01
freq.    1224.55  E(vib)   ...       0.01
freq.    1227.92  E(vib)   ...       0.01
freq.    1234.04  E(vib)   ...       0.01
freq.    1271.88  E(vib)   ...       0.01
freq.    1275.08  E(vib)   ...       0.01
freq.    1280.50  E(vib)   ...       0.01
freq.    1284.21  E(vib)   ...       0.01
freq.    1311.74  E(vib)   ...       0.01
freq.    1316.78  E(vib)   ...       0.01
freq.    1320.15  E(vib)   ...       0.01
freq.    1334.07  E(vib)   ...       0.01
freq.    1353.20  E(vib)   ...       0.01
freq.    1354.25  E(vib)   ...       0.01
freq.    1363.33  E(vib)   ...       0.01
freq.    1443.10  E(vib)   ...       0.00
freq.    2826.35  E(vib)   ...       0.00
freq.    2842.49  E(vib)   ...       0.00
freq.    2869.63  E(vib)   ...       0.00
freq.    2924.17  E(vib)   ...       0.00
freq.    2947.44  E(vib)   ...       0.00
freq.    2965.85  E(vib)   ...       0.00
freq.    2985.19  E(vib)   ...       0.00
freq.    3167.80  E(vib)   ...       0.00
freq.    3519.29  E(vib)   ...       0.00
freq.    3523.27  E(vib)   ...       0.00
freq.    3547.89  E(vib)   ...       0.00
freq.    3560.85  E(vib)   ...       0.00
freq.    3628.95  E(vib)   ...       0.00

------------
INNER ENERGY
------------

The inner energy is: U= E(el) + E(ZPE) + E(vib) + E(rot) + E(trans)
    E(el)   - is the total energy from the electronic structure calculation
              = E(kin-el) + E(nuc-el) + E(el-el) + E(nuc-nuc)
    E(ZPE)  - the the zero temperature vibrational energy from the frequency calculation
    E(vib)  - the the finite temperature correction to E(ZPE) due to population
              of excited vibrational states
    E(rot)  - is the rotational thermal energy
    E(trans)- is the translational thermal energy

Summary of contributions to the inner energy U:
Electronic energy                ...    -58.76194969 Eh
Zero point energy                ...      0.21240366 Eh     133.29 kcal/mol
Thermal vibrational correction   ...      0.01433242 Eh       8.99 kcal/mol
Thermal rotational correction    ...      0.00141627 Eh       0.89 kcal/mol
Thermal translational correction ...      0.00141627 Eh       0.89 kcal/mol
-----------------------------------------------------------------------
Total thermal energy                    -58.53238107 Eh

Summary of corrections to the electronic energy:
(perhaps to be used in another calculation)
Total thermal correction                  0.01716497 Eh      10.77 kcal/mol
Non-thermal (ZPE) correction              0.21240366 Eh     133.29 kcal/mol
-----------------------------------------------------------------------
Total correction                          0.22956862 Eh     144.06 kcal/mol

--------
ENTHALPY
--------

The enthalpy is H = U + kB*T
                kB is Boltzmann's constant
Total free energy                 ...    -58.53238107 Eh
Thermal Enthalpy correction       ...      0.00094421 Eh       0.59 kcal/mol
-----------------------------------------------------------------------
Total Enthalpy                    ...    -58.53143686 Eh

Note: Only C1 symmetry has been detected, increase convergence thresholds
      if your molecule has a higher symmetry. Symmetry factor of 1.0 is
      used for the rotational entropy correction.

Note: Rotational entropy computed according to Herzberg
Infrared and Raman Spectra, Chapter V,1, Van Nostrand Reinhold, 1945
Point Group:  C1, Symmetry Number:   1
Rotational constants in cm-1:     0.030740     0.011086     0.009747

Vibrational entropy computed according to the QRRHO of S. Grimme
Chem.Eur.J. 2012 18 9955

-------
ENTROPY
-------

The entropy contributions are T*S = T*(S(el)+S(vib)+S(rot)+S(trans))

                             ****ORCA TERMINATED NORMALLY****
TOTAL RUN TIME: 0 days 0 hours 7 minutes 13 seconds 729 msec
