                         Program Version 5.0.3 -  RELEASE  -
|  1> ! XTB2 opt numfreq
|  2> * XYZ 0 1
|  3> O 0.5556 2.3136 2.6050
|  4> C 0.0515 1.5300 1.8037
|  5> O 0.7045 0.4210 1.3944
|  6> C 0.0051 -0.7421 0.8831
|  7> C 1.0014 -1.5464 0.0414
|  8> O 1.4118 -0.7774 -1.0846
|  9> P 2.6848 -1.3191 -1.8833
| 10> O 2.6396 -2.7330 -2.3439
| 11> O 2.8369 -0.2998 -3.1025
| 12> O 3.9426 -0.9128 -0.9952
| 13> C -1.2589 -0.4046 0.0952
| 14> O -2.0296 -1.5856 -0.1389
| 15> C -2.0894 0.5838 0.8998
| 16> O -3.2810 0.8915 0.1555
| 17> C -1.2785 1.8423 1.1358
| 18> O -2.0775 2.7445 1.9105
| 19> H -0.2558 -1.3595 1.7524
| 20> H 0.5559 -2.4822 -0.3109
| 21> H 1.8851 -1.7809 0.6455
| 22> H 2.5066 -0.7175 -3.9206
| 23> H 4.0467 0.0547 -0.9622
| 24> H -1.0228 0.0283 -0.8843
| 25> H -2.9023 -1.2674 -0.4515
| 26> H -2.4267 0.1381 1.8437
| 27> H -3.6886 1.6493 0.6245
| 28> H -1.0660 2.3520 0.1888
| 29> H -1.4511 3.3791 2.3166
| 30> *
| 31>
| 32>                          ****END OF INPUT****
FINAL SINGLE POINT ENERGY       -57.716792179800
FINAL SINGLE POINT ENERGY       -57.724533430740
FINAL SINGLE POINT ENERGY       -57.727546769830
FINAL SINGLE POINT ENERGY       -57.728363802600
FINAL SINGLE POINT ENERGY       -57.728869322650
FINAL SINGLE POINT ENERGY       -57.729224750610
FINAL SINGLE POINT ENERGY       -57.729630825890
FINAL SINGLE POINT ENERGY       -57.730121370200
FINAL SINGLE POINT ENERGY       -57.730689522610
FINAL SINGLE POINT ENERGY       -57.731328196180
FINAL SINGLE POINT ENERGY       -57.736475061920
FINAL SINGLE POINT ENERGY       -57.736739864900
FINAL SINGLE POINT ENERGY       -57.736971351210
FINAL SINGLE POINT ENERGY       -57.737127102280
FINAL SINGLE POINT ENERGY       -57.737215738890
FINAL SINGLE POINT ENERGY       -57.737237133420
FINAL SINGLE POINT ENERGY       -57.737252384440
FINAL SINGLE POINT ENERGY       -57.737257389550
FINAL SINGLE POINT ENERGY       -57.737260750200
                    ***********************HURRAY********************

CARTESIAN COORDINATES (ANGSTROEM)
---------------------------------
  O     1.430623    1.703082    1.170513
  C     0.516974    0.935865    0.965028
  O     0.561185   -0.304931    1.430033
  C    -0.230844   -1.308443    0.812899
  C     0.555529   -1.743841   -0.441384
  O     0.998595   -0.584292   -1.107961
  P     2.623189   -0.420043   -1.269023
  O     3.240526   -1.538158   -1.965172
  O     2.644957    0.986798   -2.007756
  O     3.210159   -0.146770    0.158088
  C    -1.681428   -0.880871    0.506544
  O    -2.529288   -1.738528    1.220103
  C    -1.920942    0.588527    0.877545
  O    -3.159499    0.975276    0.346371
  C    -0.761980    1.402452    0.294113
  O    -0.956208    2.774121    0.512488
  H    -0.278782   -2.130652    1.533153
  H    -0.083240   -2.323268   -1.112502
  H     1.417680   -2.351403   -0.152261
  H     2.759093    0.853222   -2.947315
  H     2.847327    0.623678    0.623317
  H    -1.875643   -0.971240   -0.573974
  H    -3.432785   -1.411985    1.118494
  H    -1.927597    0.700131    1.974929
  H    -3.188139    1.940708    0.345968
  H    -0.689820    1.201232   -0.788228
  H    -0.089743    3.169233    0.693990

FINAL SINGLE POINT ENERGY       -57.737261971490

VIBRATIONAL FREQUENCIES
-----------------------

Scaling factor for frequencies =  1.000000000 (already applied!)

   0:         0.00 cm**-1
   1:         0.00 cm**-1
   2:         0.00 cm**-1
   3:         0.00 cm**-1
   4:         0.00 cm**-1
   5:         0.00 cm**-1
   6:        30.54 cm**-1
   7:        41.02 cm**-1
   8:        63.42 cm**-1
   9:        95.59 cm**-1
  10:        96.27 cm**-1
  11:       119.96 cm**-1
  12:       147.36 cm**-1
  13:       201.07 cm**-1
  14:       225.66 cm**-1
  15:       244.95 cm**-1
  16:       247.78 cm**-1
  17:       263.92 cm**-1
  18:       293.27 cm**-1
  19:       321.21 cm**-1
  20:       343.32 cm**-1
  21:       344.42 cm**-1
  22:       357.82 cm**-1
  23:       382.29 cm**-1
  24:       404.94 cm**-1
  25:       412.27 cm**-1
  26:       419.87 cm**-1
  27:       428.95 cm**-1
  28:       434.03 cm**-1
  29:       471.47 cm**-1
  30:       473.82 cm**-1
  31:       499.96 cm**-1
  32:       573.96 cm**-1
  33:       591.28 cm**-1
  34:       611.12 cm**-1
  35:       692.02 cm**-1
  36:       706.30 cm**-1
  37:       794.83 cm**-1
  38:       817.08 cm**-1
  39:       877.60 cm**-1
  40:       884.96 cm**-1
  41:       897.89 cm**-1
  42:       910.80 cm**-1
  43:       967.57 cm**-1
  44:       976.86 cm**-1
  45:      1007.69 cm**-1
  46:      1035.05 cm**-1
  47:      1049.80 cm**-1
  48:      1079.23 cm**-1
  49:      1097.78 cm**-1
  50:      1106.14 cm**-1
  51:      1126.09 cm**-1
  52:      1146.61 cm**-1
  53:      1154.48 cm**-1
  54:      1186.48 cm**-1
  55:      1196.61 cm**-1
  56:      1210.25 cm**-1
  57:      1226.60 cm**-1
  58:      1254.24 cm**-1
  59:      1258.30 cm**-1
  60:      1278.61 cm**-1
  61:      1289.38 cm**-1
  62:      1294.63 cm**-1
  63:      1309.94 cm**-1
  64:      1318.34 cm**-1
  65:      1327.04 cm**-1
  66:      1340.35 cm**-1
  67:      1349.60 cm**-1
  68:      1454.18 cm**-1
  69:      1725.96 cm**-1
  70:      2846.55 cm**-1
  71:      2855.32 cm**-1
  72:      2867.56 cm**-1
  73:      2950.16 cm**-1
  74:      2960.41 cm**-1
  75:      2968.05 cm**-1
  76:      3309.14 cm**-1
  77:      3436.69 cm**-1
  78:      3514.84 cm**-1
  79:      3516.57 cm**-1
  80:      3628.43 cm**-1

IR SPECTRUM
-----------

 Mode   freq       eps      Int      T**2         TX        TY        TZ
       cm**-1   L/(mol*cm) km/mol    a.u.
----------------------------------------------------------------------------
  6:     30.54   0.000134    0.68  0.001367  ( 0.006200  0.003567  0.036280)
  7:     41.02   0.000586    2.96  0.004457  (-0.027426  0.055184 -0.025683)
  8:     63.42   0.000916    4.63  0.004506  (-0.024561 -0.035004 -0.051740)
  9:     95.59   0.000175    0.88  0.000571  ( 0.004429 -0.023478 -0.000777)
 10:     96.27   0.000203    1.02  0.000657  ( 0.009915  0.012761 -0.019886)
 11:    119.96   0.001982   10.02  0.005156  ( 0.071597  0.002013 -0.005089)
 12:    147.36   0.000149    0.75  0.000315  ( 0.007143  0.009370 -0.013270)
 13:    201.07   0.006525   32.97  0.010127  (-0.100386  0.002734  0.006468)
 14:    225.66   0.000368    1.86  0.000509  (-0.014672 -0.016472  0.004709)
 15:    244.95   0.002085   10.54  0.002656  (-0.023100  0.030222 -0.034773)
 16:    247.78   0.012456   62.95  0.015688  (-0.124443 -0.013518  0.004380)
 17:    263.92   0.009380   47.40  0.011091  (-0.062511  0.080089 -0.027726)
 18:    293.27   0.002259   11.42  0.002404  (-0.041671  0.023611 -0.010476)
 19:    321.21   0.000599    3.03  0.000582  ( 0.010515 -0.021700  0.000874)
 20:    343.32   0.008980   45.38  0.008163  ( 0.007865  0.025185  0.086409)
 21:    344.42   0.014015   70.82  0.012698  ( 0.086598  0.051000 -0.050966)
 22:    357.82   0.001808    9.14  0.001577  ( 0.035393  0.005292 -0.017207)
 23:    382.29   0.007488   37.84  0.006112  ( 0.060765  0.034141 -0.035418)
 24:    404.94   0.002555   12.91  0.001969  (-0.012552  0.039176  0.016634)
 25:    412.27   0.002420   12.23  0.001832  ( 0.023051  0.017632 -0.031461)
 26:    419.87   0.029647  149.82  0.022035  (-0.007320  0.033777  0.144363)
 27:    428.95   0.007281   36.79  0.005297  ( 0.040756 -0.016305  0.058051)
 28:    434.03   0.050216  253.77  0.036104  (-0.030581  0.046195  0.181755)
 29:    471.47   0.004698   23.74  0.003110  (-0.020351 -0.032530 -0.040465)
 30:    473.82   0.014411   72.83  0.009491  (-0.071284 -0.059415  0.029655)
 31:    499.96   0.002445   12.35  0.001526  (-0.019602  0.007463 -0.032955)
 32:    573.96   0.009349   47.24  0.005083  (-0.055055 -0.039596  0.021999)
 33:    591.28   0.014928   75.44  0.007879  ( 0.053588  0.028240 -0.064880)
 34:    611.12   0.017178   86.81  0.008772  (-0.082802 -0.037239  0.022998)
 35:    692.02   0.018541   93.70  0.008361  ( 0.071290 -0.027824 -0.050046)
 36:    706.30   0.027760  140.29  0.012265  ( 0.108562  0.014532 -0.016373)
 37:    794.83   0.008484   42.87  0.003331  ( 0.041327  0.012725 -0.038224)
 38:    817.08   0.029206  147.60  0.011155  ( 0.082148  0.054041 -0.038548)
 39:    877.60   0.038069  192.38  0.013537  ( 0.004937  0.080261 -0.084086)
 40:    884.96   0.002236   11.30  0.000788  ( 0.022217  0.017101 -0.001560)
 41:    897.89   0.009178   46.38  0.003190  (-0.048560 -0.019183  0.021537)
 42:    910.80   0.034575  174.73  0.011846  (-0.036236 -0.099377 -0.025638)
 43:    967.57   0.002705   13.67  0.000872  ( 0.024820  0.011885 -0.010727)
 44:    976.86   0.084247  425.75  0.026913  (-0.117352  0.018440 -0.113144)
 45:   1007.69   0.020522  103.71  0.006355  ( 0.059654 -0.027961  0.044887)
 46:   1035.05   0.000772    3.90  0.000233  ( 0.002652  0.002699  0.014782)
 47:   1049.80   0.002441   12.33  0.000726  (-0.002364 -0.022145 -0.015151)
 48:   1079.23   0.000979    4.95  0.000283  ( 0.009990 -0.013496 -0.001109)
 49:   1097.78   0.030063  151.93  0.008546  (-0.040031 -0.068266  0.047784)
 50:   1106.14   0.014480   73.18  0.004085  (-0.016281 -0.061620 -0.004793)
 51:   1126.09   0.022410  113.25  0.006210  (-0.049595  0.035279 -0.050058)
 52:   1146.61   0.026770  135.28  0.007286  (-0.067767  0.050887  0.010198)
 53:   1154.48   0.012136   61.33  0.003280  (-0.016701  0.054395  0.006531)
 54:   1186.48   0.004481   22.64  0.001179  ( 0.023890  0.007268  0.023559)
 55:   1196.61   0.018087   91.41  0.004717  ( 0.003009 -0.065612  0.020076)
 56:   1210.25   0.012077   61.03  0.003114  ( 0.016293  0.050225  0.018056)
 57:   1226.60   0.032675  165.13  0.008313  ( 0.004203  0.080589 -0.042436)
 58:   1254.24   0.002273   11.49  0.000566  ( 0.014083  0.012531 -0.014498)
 59:   1258.30   0.013184   66.62  0.003270  (-0.056394  0.004799 -0.008142)
 60:   1278.61   0.029842  150.81  0.007283  (-0.023331  0.080546 -0.015851)
 61:   1289.38   0.016810   84.95  0.004069  (-0.013440 -0.053231 -0.032472)
 62:   1294.63   0.049457  249.94  0.011921  (-0.065795  0.073145  0.047351)
 63:   1309.94   0.011684   59.05  0.002783  ( 0.025351 -0.023107 -0.040085)
 64:   1318.34   0.013874   70.11  0.003284  ( 0.009616 -0.052654  0.020473)
 65:   1327.04   0.001493    7.54  0.000351  ( 0.014429  0.007771  0.009078)
 66:   1340.35   0.005295   26.76  0.001233  (-0.021557 -0.026812 -0.007015)
 67:   1349.60   0.001836    9.28  0.000424  ( 0.002138  0.017439 -0.010760)
 68:   1454.18   0.000074    0.37  0.000016  ( 0.000737 -0.003719  0.001190)
 69:   1725.96   0.093482  472.42  0.016902  (-0.092321 -0.090300 -0.014999)
 70:   2846.55   0.000041    0.21  0.000004  (-0.001005  0.001825 -0.000393)
 71:   2855.32   0.001450    7.33  0.000158  ( 0.001348 -0.001831 -0.012382)
 72:   2867.56   0.020190  102.03  0.002197  ( 0.000477  0.000138  0.046871)
 73:   2950.16   0.000167    0.84  0.000018  (-0.001426  0.002060 -0.003373)
 74:   2960.41   0.000067    0.34  0.000007  (-0.000765 -0.000850 -0.002390)
 75:   2968.05   0.000151    0.76  0.000016  ( 0.000238  0.003882 -0.000864)
 76:   3309.14   0.069065  349.03  0.006513  ( 0.056511 -0.048552 -0.031021)
 77:   3436.69   0.008133   41.10  0.000739  (-0.024738 -0.002846 -0.010885)
 78:   3514.84   0.015086   76.24  0.001339  ( 0.014976 -0.033303  0.002451)
 79:   3516.57   0.003875   19.58  0.000344  ( 0.018208 -0.000970  0.003370)
 80:   3628.43   0.011248   56.84  0.000967  ( 0.006934 -0.005657 -0.029787)

--------------------------
THERMOCHEMISTRY AT 298.15K
--------------------------

Temperature         ... 298.15 K
Pressure            ... 1.00 atm
Total Mass          ... 258.12 AMU

Throughout the following assumptions are being made:
  (1) The electronic state is orbitally nondegenerate
  (2) There are no thermally accessible electronically excited states
  (3) Hindered rotations indicated by low frequency modes are not
      treated as such but are treated as vibrations and this may
      cause some error
  (4) All equations used are the standard statistical mechanics
      equations for an ideal gas
  (5) All vibrations are strictly harmonic

freq.      30.54  E(vib)   ...       0.55
freq.      41.02  E(vib)   ...       0.54
freq.      63.42  E(vib)   ...       0.51
freq.      95.59  E(vib)   ...       0.47
freq.      96.27  E(vib)   ...       0.47
freq.     119.96  E(vib)   ...       0.44
freq.     147.36  E(vib)   ...       0.41
freq.     201.07  E(vib)   ...       0.35
freq.     225.66  E(vib)   ...       0.33
freq.     244.95  E(vib)   ...       0.31
freq.     247.78  E(vib)   ...       0.31
freq.     263.92  E(vib)   ...       0.29
freq.     293.27  E(vib)   ...       0.27
freq.     321.21  E(vib)   ...       0.25
freq.     343.32  E(vib)   ...       0.23
freq.     344.42  E(vib)   ...       0.23
freq.     357.82  E(vib)   ...       0.22
freq.     382.29  E(vib)   ...       0.21
freq.     404.94  E(vib)   ...       0.19
freq.     412.27  E(vib)   ...       0.19
freq.     419.87  E(vib)   ...       0.18
freq.     428.95  E(vib)   ...       0.18
freq.     434.03  E(vib)   ...       0.17
freq.     471.47  E(vib)   ...       0.15
freq.     473.82  E(vib)   ...       0.15
freq.     499.96  E(vib)   ...       0.14
freq.     573.96  E(vib)   ...       0.11
freq.     591.28  E(vib)   ...       0.10
freq.     611.12  E(vib)   ...       0.10
freq.     692.02  E(vib)   ...       0.07
freq.     706.30  E(vib)   ...       0.07
freq.     794.83  E(vib)   ...       0.05
freq.     817.08  E(vib)   ...       0.05
freq.     877.60  E(vib)   ...       0.04
freq.     884.96  E(vib)   ...       0.04
freq.     897.89  E(vib)   ...       0.03
freq.     910.80  E(vib)   ...       0.03
freq.     967.57  E(vib)   ...       0.03
freq.     976.86  E(vib)   ...       0.03
freq.    1007.69  E(vib)   ...       0.02
freq.    1035.05  E(vib)   ...       0.02
freq.    1049.80  E(vib)   ...       0.02
freq.    1079.23  E(vib)   ...       0.02
freq.    1097.78  E(vib)   ...       0.02
freq.    1106.14  E(vib)   ...       0.02
freq.    1126.09  E(vib)   ...       0.01
freq.    1146.61  E(vib)   ...       0.01
freq.    1154.48  E(vib)   ...       0.01
freq.    1186.48  E(vib)   ...       0.01
freq.    1196.61  E(vib)   ...       0.01
freq.    1210.25  E(vib)   ...       0.01
freq.    1226.60  E(vib)   ...       0.01
freq.    1254.24  E(vib)   ...       0.01
freq.    1258.30  E(vib)   ...       0.01
freq.    1278.61  E(vib)   ...       0.01
freq.    1289.38  E(vib)   ...       0.01
freq.    1294.63  E(vib)   ...       0.01
freq.    1309.94  E(vib)   ...       0.01
freq.    1318.34  E(vib)   ...       0.01
freq.    1327.04  E(vib)   ...       0.01
freq.    1340.35  E(vib)   ...       0.01
freq.    1349.60  E(vib)   ...       0.01
freq.    1454.18  E(vib)   ...       0.00
freq.    1725.96  E(vib)   ...       0.00
freq.    2846.55  E(vib)   ...       0.00
freq.    2855.32  E(vib)   ...       0.00
freq.    2867.56  E(vib)   ...       0.00
freq.    2950.16  E(vib)   ...       0.00
freq.    2960.41  E(vib)   ...       0.00
freq.    2968.05  E(vib)   ...       0.00
freq.    3309.14  E(vib)   ...       0.00
freq.    3436.69  E(vib)   ...       0.00
freq.    3514.84  E(vib)   ...       0.00
freq.    3516.57  E(vib)   ...       0.00
freq.    3628.43  E(vib)   ...       0.00

------------
INNER ENERGY
------------

The inner energy is: U= E(el) + E(ZPE) + E(vib) + E(rot) + E(trans)
    E(el)   - is the total energy from the electronic structure calculation
              = E(kin-el) + E(nuc-el) + E(el-el) + E(nuc-nuc)
    E(ZPE)  - the the zero temperature vibrational energy from the frequency calculation
    E(vib)  - the the finite temperature correction to E(ZPE) due to population
              of excited vibrational states
    E(rot)  - is the rotational thermal energy
    E(trans)- is the translational thermal energy

Summary of contributions to the inner energy U:
Electronic energy                ...    -57.73726197 Eh
Zero point energy                ...      0.18987284 Eh     119.15 kcal/mol
Thermal vibrational correction   ...      0.01390605 Eh       8.73 kcal/mol
Thermal rotational correction    ...      0.00141627 Eh       0.89 kcal/mol
Thermal translational correction ...      0.00141627 Eh       0.89 kcal/mol
-----------------------------------------------------------------------
Total thermal energy                    -57.53065054 Eh

Summary of corrections to the electronic energy:
(perhaps to be used in another calculation)
Total thermal correction                  0.01673859 Eh      10.50 kcal/mol
Non-thermal (ZPE) correction              0.18987284 Eh     119.15 kcal/mol
-----------------------------------------------------------------------
Total correction                          0.20661143 Eh     129.65 kcal/mol

--------
ENTHALPY
--------

The enthalpy is H = U + kB*T
                kB is Boltzmann's constant
Total free energy                 ...    -57.53065054 Eh
Thermal Enthalpy correction       ...      0.00094421 Eh       0.59 kcal/mol
-----------------------------------------------------------------------
Total Enthalpy                    ...    -57.52970633 Eh

Note: Only C1 symmetry has been detected, increase convergence thresholds
      if your molecule has a higher symmetry. Symmetry factor of 1.0 is
      used for the rotational entropy correction.

Note: Rotational entropy computed according to Herzberg
Infrared and Raman Spectra, Chapter V,1, Van Nostrand Reinhold, 1945
Point Group:  C1, Symmetry Number:   1
Rotational constants in cm-1:     0.028130     0.011891     0.010061

Vibrational entropy computed according to the QRRHO of S. Grimme
Chem.Eur.J. 2012 18 9955

-------
ENTROPY
-------

The entropy contributions are T*S = T*(S(el)+S(vib)+S(rot)+S(trans))
     S(el)   - electronic entropy
     S(vib)  - vibrational entropy
     S(rot)  - rotational entropy
     S(trans)- translational entropy
The entropies will be listed as multiplied by the temperature to get
units of energy

                             ****ORCA TERMINATED NORMALLY****
TOTAL RUN TIME: 0 days 0 hours 6 minutes 39 seconds 154 msec
