                         Program Version 5.0.3 -  RELEASE  -
|  1> ! XTB2 opt numfreq
|  2> * xyz 0 1
|  3>   O     0.678244   -0.270903    1.794488
|  4>   C     1.586543    0.354974    1.271205
|  5>   O     1.739448    1.635386    1.356839
|  6>   C     2.662263   -0.405158    0.481957
|  7>   O     3.806520   -0.438544    0.840656
|  8>   C     2.152725   -1.185687   -0.718093
|  9>   C     0.928112   -0.548349   -1.396275
| 10>   O     1.121943    0.837822   -1.295833
| 11>   C    -0.404305   -1.091247   -0.804992
| 12>   O    -0.731893   -2.218425   -1.585923
| 13>   C    -1.555833   -0.066129   -0.844507
| 14>   O    -1.246451    1.088250   -0.086616
| 15>   P    -1.653819    1.341981    1.427850
| 16>   O    -0.713521    2.252784    2.093897
| 17>   O    -3.124411    1.929406    1.287125
| 18>   O    -1.943965   -0.048716    2.123363
| 19>   H     0.910823    2.047120    1.745880
| 20>   H     2.985594   -1.245711   -1.419974
| 21>   H     1.920780   -2.202869   -0.394175
| 22>   H     0.908126   -0.854753   -2.456004
| 23>   H     0.330921    1.325001   -1.545898
| 24>   H    -0.255178   -1.382566    0.240083
| 25>   H    -1.480271   -2.680040   -1.191140
| 26>   H    -2.470214   -0.536873   -0.470245
| 27>   H    -1.729067    0.267858   -1.873809
| 28>   H    -3.322622    2.515533    2.014739
| 29>   H    -1.100393   -0.419947    2.409804
| 30> *
| 31>
| 32>                          ****END OF INPUT****
FINAL SINGLE POINT ENERGY       -57.719461680650
FINAL SINGLE POINT ENERGY       -57.714042255780
FINAL SINGLE POINT ENERGY       -57.717664443110
FINAL SINGLE POINT ENERGY       -57.693938512870
FINAL SINGLE POINT ENERGY       -57.717924671870
FINAL SINGLE POINT ENERGY       -57.717493661360
FINAL SINGLE POINT ENERGY       -57.719196876200
FINAL SINGLE POINT ENERGY       -57.718694503120
FINAL SINGLE POINT ENERGY       -57.719543735430
FINAL SINGLE POINT ENERGY       -57.719133318160
FINAL SINGLE POINT ENERGY       -57.719340257930
FINAL SINGLE POINT ENERGY       -57.719636405780
FINAL SINGLE POINT ENERGY       -57.719644901950
FINAL SINGLE POINT ENERGY       -57.719655000060
FINAL SINGLE POINT ENERGY       -57.719660528560
FINAL SINGLE POINT ENERGY       -57.719663344020
FINAL SINGLE POINT ENERGY       -57.719665662110
FINAL SINGLE POINT ENERGY       -57.719667107430
FINAL SINGLE POINT ENERGY       -57.719667905250
                    ***********************HURRAY********************

CARTESIAN COORDINATES (ANGSTROEM)
---------------------------------
  O     0.671360   -0.290203    1.788026
  C     1.573634    0.349703    1.273092
  O     1.716624    1.630701    1.369507
  C     2.662877   -0.378149    0.470967
  O     3.815661   -0.348988    0.800020
  C     2.157282   -1.191793   -0.706608
  C     0.934661   -0.570290   -1.404505
  O     1.131013    0.817217   -1.337745
  C    -0.406800   -1.091024   -0.811606
  O    -0.768426   -2.192281   -1.615543
  C    -1.532387   -0.036362   -0.815887
  O    -1.172314    1.089149   -0.039603
  P    -1.648788    1.334804    1.456646
  O    -0.745714    2.254221    2.160408
  O    -3.121982    1.898636    1.259471
  O    -1.949802   -0.063132    2.139175
  H     0.900877    2.037274    1.785856
  H     2.987853   -1.275453   -1.408692
  H     1.918497   -2.195348   -0.348751
  H     0.923080   -0.903575   -2.456089
  H     0.371995    1.293644   -1.688228
  H    -0.255185   -1.411614    0.225485
  H    -1.532224   -2.636075   -1.229801
  H    -2.449599   -0.490469   -0.428338
  H    -1.721119    0.314310   -1.836706
  H    -3.350195    2.493998    1.970857
  H    -1.110781   -0.438704    2.432994

FINAL SINGLE POINT ENERGY       -57.719668316680

VIBRATIONAL FREQUENCIES
-----------------------

Scaling factor for frequencies =  1.000000000 (already applied!)

   0:         0.00 cm**-1
   1:         0.00 cm**-1
   2:         0.00 cm**-1
   3:         0.00 cm**-1
   4:         0.00 cm**-1
   5:         0.00 cm**-1
   6:        37.61 cm**-1
   7:        55.84 cm**-1
   8:        76.46 cm**-1
   9:        91.28 cm**-1
  10:       102.93 cm**-1
  11:       131.93 cm**-1
  12:       144.43 cm**-1
  13:       160.55 cm**-1
  14:       167.67 cm**-1
  15:       182.38 cm**-1
  16:       191.68 cm**-1
  17:       227.33 cm**-1
  18:       249.41 cm**-1
  19:       268.51 cm**-1
  20:       269.71 cm**-1
  21:       308.62 cm**-1
  22:       326.68 cm**-1
  23:       328.06 cm**-1
  24:       361.05 cm**-1
  25:       374.36 cm**-1
  26:       381.89 cm**-1
  27:       395.08 cm**-1
  28:       418.31 cm**-1
  29:       440.22 cm**-1
  30:       480.27 cm**-1
  31:       527.36 cm**-1
  32:       532.75 cm**-1
  33:       567.15 cm**-1
  34:       586.21 cm**-1
  35:       641.11 cm**-1
  36:       748.60 cm**-1
  37:       760.53 cm**-1
  38:       769.42 cm**-1
  39:       820.12 cm**-1
  40:       838.86 cm**-1
  41:       856.44 cm**-1
  42:       901.95 cm**-1
  43:       904.24 cm**-1
  44:       914.95 cm**-1
  45:       952.92 cm**-1
  46:       986.62 cm**-1
  47:      1021.41 cm**-1
  48:      1052.25 cm**-1
  49:      1070.25 cm**-1
  50:      1099.13 cm**-1
  51:      1103.61 cm**-1
  52:      1109.13 cm**-1
  53:      1156.15 cm**-1
  54:      1194.83 cm**-1
  55:      1200.88 cm**-1
  56:      1223.70 cm**-1
  57:      1232.75 cm**-1
  58:      1245.61 cm**-1
  59:      1286.28 cm**-1
  60:      1290.75 cm**-1
  61:      1305.69 cm**-1
  62:      1311.82 cm**-1
  63:      1331.70 cm**-1
  64:      1341.49 cm**-1
  65:      1360.29 cm**-1
  66:      1414.05 cm**-1
  67:      1465.63 cm**-1
  68:      1710.29 cm**-1
  69:      1786.09 cm**-1
  70:      2843.51 cm**-1
  71:      2855.63 cm**-1
  72:      2920.19 cm**-1
  73:      2933.01 cm**-1
  74:      2937.27 cm**-1
  75:      2975.23 cm**-1
  76:      3000.38 cm**-1
  77:      3452.45 cm**-1
  78:      3539.66 cm**-1
  79:      3565.25 cm**-1
  80:      3635.55 cm**-1

IR SPECTRUM
-----------

 Mode   freq       eps      Int      T**2         TX        TY        TZ
       cm**-1   L/(mol*cm) km/mol    a.u.
----------------------------------------------------------------------------
  6:     37.61   0.000204    1.03  0.001691  (-0.035225 -0.020550  0.005320)
  7:     55.84   0.000323    1.63  0.001803  (-0.027778  0.031367  0.006916)
  8:     76.46   0.000908    4.59  0.003706  ( 0.002507 -0.053774  0.028419)
  9:     91.28   0.000179    0.91  0.000613  (-0.020336  0.013171  0.005100)
 10:    102.93   0.000828    4.18  0.002510  (-0.039771 -0.028804 -0.009942)
 11:    131.93   0.005436   27.47  0.012859  (-0.041349 -0.081857  0.066697)
 12:    144.43   0.000117    0.59  0.000254  (-0.007494  0.013640  0.003409)
 13:    160.55   0.004250   21.48  0.008261  (-0.072611 -0.054266  0.006623)
 14:    167.67   0.009417   47.59  0.017526  ( 0.049652  0.094904 -0.077803)
 15:    182.38   0.004002   20.22  0.006848  (-0.050437 -0.059231  0.028202)
 16:    191.68   0.001852    9.36  0.003016  ( 0.034172  0.010858 -0.041596)
 17:    227.33   0.009015   45.56  0.012375  ( 0.003292 -0.042397  0.102796)
 18:    249.41   0.003405   17.21  0.004261  ( 0.045360 -0.005474 -0.046618)
 19:    268.51   0.028672  144.90  0.033323  (-0.111874  0.009466  0.143936)
 20:    269.71   0.001426    7.21  0.001650  ( 0.030728 -0.026355 -0.003358)
 21:    308.62   0.006287   31.77  0.006357  ( 0.029111  0.049603 -0.055222)
 22:    326.68   0.022847  115.46  0.021824  ( 0.080539 -0.072716  0.100251)
 23:    328.06   0.007554   38.17  0.007186  (-0.082341  0.001429  0.020087)
 24:    361.05   0.005177   26.16  0.004474  (-0.048471  0.038058 -0.026007)
 25:    374.36   0.003128   15.81  0.002607  ( 0.048803 -0.005188  0.014091)
 26:    381.89   0.001697    8.57  0.001386  ( 0.018889 -0.017722 -0.026751)
 27:    395.08   0.001776    8.97  0.001403  ( 0.022229  0.021860 -0.020756)
 28:    418.31   0.020864  105.44  0.015565  ( 0.065746 -0.090026  0.056015)
 29:    440.22   0.015536   78.51  0.011013  ( 0.071489 -0.076754  0.003401)
 30:    480.27   0.003620   18.29  0.002352  ( 0.022560  0.035939 -0.023485)
 31:    527.36   0.005031   25.43  0.002977  ( 0.024925 -0.036977 -0.031442)
 32:    532.75   0.046012  232.53  0.026952  (-0.057500  0.046717  0.146503)
 33:    567.15   0.007220   36.49  0.003973  ( 0.009102  0.045787  0.042347)
 34:    586.21   0.001794    9.06  0.000955  ( 0.015798  0.017141 -0.020282)
 35:    641.11   0.001985   10.03  0.000966  (-0.021192 -0.007297  0.021537)
 36:    748.60   0.000150    0.76  0.000063  (-0.000902 -0.006803  0.003932)
 37:    760.53   0.011802   59.64  0.004842  (-0.038546  0.019357  0.054608)
 38:    769.42   0.005458   27.58  0.002214  (-0.009234 -0.046130 -0.000622)
 39:    820.12   0.030408  153.67  0.011570  (-0.083129  0.034851  0.058698)
 40:    838.86   0.016366   82.71  0.006088  (-0.078024 -0.000409  0.000669)
 41:    856.44   0.038508  194.60  0.014031  (-0.049070  0.107459 -0.008710)
 42:    901.95   0.060530  305.89  0.020943  (-0.077382  0.053779 -0.109829)
 43:    904.24   0.063674  321.78  0.021975  ( 0.082980 -0.004328  0.122761)
 44:    914.95   0.004102   20.73  0.001399  (-0.031708 -0.012869  0.015104)
 45:    952.92   0.083597  422.46  0.027376  (-0.123726 -0.051408  0.097086)
 46:    986.62   0.000668    3.37  0.000211  (-0.002072  0.011038 -0.009220)
 47:   1021.41   0.001939    9.80  0.000593  ( 0.016015 -0.004816 -0.017687)
 48:   1052.25   0.001190    6.01  0.000353  ( 0.001648  0.004100 -0.018259)
 49:   1070.25   0.037465  189.33  0.010924  ( 0.001672  0.090243  0.052700)
 50:   1099.13   0.040944  206.91  0.011625  (-0.002765  0.056854  0.091568)
 51:   1103.61   0.014459   73.07  0.004089  (-0.035322 -0.053297  0.000625)
 52:   1109.13   0.001876    9.48  0.000528  (-0.004717  0.021143 -0.007660)
 53:   1156.15   0.000480    2.43  0.000130  (-0.007852  0.008040 -0.001797)
 54:   1194.83   0.004175   21.10  0.001090  ( 0.004611  0.032586 -0.002713)
 55:   1200.88   0.001653    8.35  0.000430  ( 0.018824 -0.003812  0.007793)
 56:   1223.70   0.046708  236.04  0.011911  (-0.089852 -0.055578 -0.027368)
 57:   1232.75   0.070596  356.76  0.017871  (-0.069475 -0.109348 -0.032974)
 58:   1245.61   0.011260   56.90  0.002821  ( 0.043834 -0.023537  0.018585)
 59:   1286.28   0.002467   12.46  0.000598  ( 0.001640  0.007770  0.023138)
 60:   1290.75   0.005066   25.60  0.001225  (-0.024105 -0.007632 -0.024196)
 61:   1305.69   0.009236   46.68  0.002207  (-0.026921  0.009291  0.037368)
 62:   1311.82   0.005431   27.45  0.001292  ( 0.014118 -0.023743 -0.022999)
 63:   1331.70   0.008747   44.20  0.002050  (-0.021779 -0.027304 -0.028805)
 64:   1341.49   0.026271  132.76  0.006111  (-0.018426  0.072770  0.021824)
 65:   1360.29   0.011955   60.42  0.002743  ( 0.043591  0.020762  0.020284)
 66:   1414.05   0.005685   28.73  0.001255  (-0.012140  0.033070  0.003680)
 67:   1465.63   0.003100   15.67  0.000660  ( 0.020164 -0.012299  0.010109)
 68:   1710.29   0.098488  497.72  0.017970  (-0.084948 -0.098534  0.032332)
 69:   1786.09   0.054875  277.31  0.009588  (-0.090781 -0.000893 -0.036684)
 70:   2843.51   0.009411   47.56  0.001033  ( 0.011783 -0.020279 -0.021972)
 71:   2855.63   0.170467  861.47  0.018629  (-0.113523  0.055520  0.051562)
 72:   2920.19   0.000504    2.55  0.000054  ( 0.002590 -0.004623  0.005075)
 73:   2933.01   0.007953   40.19  0.000846  ( 0.003243  0.007815 -0.027832)
 74:   2937.27   0.011392   57.57  0.001210  (-0.030855 -0.011203 -0.011521)
 75:   2975.23   0.002055   10.39  0.000216  ( 0.007032  0.000965 -0.012851)
 76:   3000.38   0.004396   22.22  0.000457  (-0.018051  0.007197  0.008921)
 77:   3452.45   0.036942  186.69  0.003339  ( 0.053089 -0.020554  0.009914)
 78:   3539.66   0.002154   10.88  0.000190  ( 0.011784  0.004661 -0.005412)
 79:   3565.25   0.007278   36.78  0.000637  ( 0.021644 -0.011958  0.005056)
 80:   3635.55   0.010549   53.31  0.000905  ( 0.013923 -0.017432 -0.020192)

--------------------------
THERMOCHEMISTRY AT 298.15K
--------------------------

Temperature         ... 298.15 K
Pressure            ... 1.00 atm
Total Mass          ... 258.12 AMU

Throughout the following assumptions are being made:
  (1) The electronic state is orbitally nondegenerate
  (2) There are no thermally accessible electronically excited states
  (3) Hindered rotations indicated by low frequency modes are not
      treated as such but are treated as vibrations and this may
      cause some error
  (4) All equations used are the standard statistical mechanics
      equations for an ideal gas
  (5) All vibrations are strictly harmonic

freq.      37.61  E(vib)   ...       0.54
freq.      55.84  E(vib)   ...       0.52
freq.      76.46  E(vib)   ...       0.49
freq.      91.28  E(vib)   ...       0.47
freq.     102.93  E(vib)   ...       0.46
freq.     131.93  E(vib)   ...       0.42
freq.     144.43  E(vib)   ...       0.41
freq.     160.55  E(vib)   ...       0.39
freq.     167.67  E(vib)   ...       0.38
freq.     182.38  E(vib)   ...       0.37
freq.     191.68  E(vib)   ...       0.36
freq.     227.33  E(vib)   ...       0.33
freq.     249.41  E(vib)   ...       0.31
freq.     268.51  E(vib)   ...       0.29
freq.     269.71  E(vib)   ...       0.29
freq.     308.62  E(vib)   ...       0.26
freq.     326.68  E(vib)   ...       0.24
freq.     328.06  E(vib)   ...       0.24
freq.     361.05  E(vib)   ...       0.22
freq.     374.36  E(vib)   ...       0.21
freq.     381.89  E(vib)   ...       0.21
freq.     395.08  E(vib)   ...       0.20
freq.     418.31  E(vib)   ...       0.18
freq.     440.22  E(vib)   ...       0.17
freq.     480.27  E(vib)   ...       0.15
freq.     527.36  E(vib)   ...       0.13
freq.     532.75  E(vib)   ...       0.13
freq.     567.15  E(vib)   ...       0.11
freq.     586.21  E(vib)   ...       0.11
freq.     641.11  E(vib)   ...       0.09
freq.     748.60  E(vib)   ...       0.06
freq.     760.53  E(vib)   ...       0.06
freq.     769.42  E(vib)   ...       0.06
freq.     820.12  E(vib)   ...       0.05
freq.     838.86  E(vib)   ...       0.04
freq.     856.44  E(vib)   ...       0.04
freq.     901.95  E(vib)   ...       0.03
freq.     904.24  E(vib)   ...       0.03
freq.     914.95  E(vib)   ...       0.03
freq.     952.92  E(vib)   ...       0.03
freq.     986.62  E(vib)   ...       0.02
freq.    1021.41  E(vib)   ...       0.02
freq.    1052.25  E(vib)   ...       0.02
freq.    1070.25  E(vib)   ...       0.02
freq.    1099.13  E(vib)   ...       0.02
freq.    1103.61  E(vib)   ...       0.02
freq.    1109.13  E(vib)   ...       0.02
freq.    1156.15  E(vib)   ...       0.01
freq.    1194.83  E(vib)   ...       0.01
freq.    1200.88  E(vib)   ...       0.01
freq.    1223.70  E(vib)   ...       0.01
freq.    1232.75  E(vib)   ...       0.01
freq.    1245.61  E(vib)   ...       0.01
freq.    1286.28  E(vib)   ...       0.01
freq.    1290.75  E(vib)   ...       0.01
freq.    1305.69  E(vib)   ...       0.01
freq.    1311.82  E(vib)   ...       0.01
freq.    1331.70  E(vib)   ...       0.01
freq.    1341.49  E(vib)   ...       0.01
freq.    1360.29  E(vib)   ...       0.01
freq.    1414.05  E(vib)   ...       0.00
freq.    1465.63  E(vib)   ...       0.00
freq.    1710.29  E(vib)   ...       0.00
freq.    1786.09  E(vib)   ...       0.00
freq.    2843.51  E(vib)   ...       0.00
freq.    2855.63  E(vib)   ...       0.00
freq.    2920.19  E(vib)   ...       0.00
freq.    2933.01  E(vib)   ...       0.00
freq.    2937.27  E(vib)   ...       0.00
freq.    2975.23  E(vib)   ...       0.00
freq.    3000.38  E(vib)   ...       0.00
freq.    3452.45  E(vib)   ...       0.00
freq.    3539.66  E(vib)   ...       0.00
freq.    3565.25  E(vib)   ...       0.00
freq.    3635.55  E(vib)   ...       0.00

------------
INNER ENERGY
------------

The inner energy is: U= E(el) + E(ZPE) + E(vib) + E(rot) + E(trans)
    E(el)   - is the total energy from the electronic structure calculation
              = E(kin-el) + E(nuc-el) + E(el-el) + E(nuc-nuc)
    E(ZPE)  - the the zero temperature vibrational energy from the frequency calculation
    E(vib)  - the the finite temperature correction to E(ZPE) due to population
              of excited vibrational states
    E(rot)  - is the rotational thermal energy
    E(trans)- is the translational thermal energy

Summary of contributions to the inner energy U:
Electronic energy                ...    -57.71966832 Eh
Zero point energy                ...      0.18784281 Eh     117.87 kcal/mol
Thermal vibrational correction   ...      0.01487634 Eh       9.34 kcal/mol
Thermal rotational correction    ...      0.00141627 Eh       0.89 kcal/mol
Thermal translational correction ...      0.00141627 Eh       0.89 kcal/mol
-----------------------------------------------------------------------
Total thermal energy                    -57.51411663 Eh

Summary of corrections to the electronic energy:
(perhaps to be used in another calculation)
Total thermal correction                  0.01770888 Eh      11.11 kcal/mol
Non-thermal (ZPE) correction              0.18784281 Eh     117.87 kcal/mol
-----------------------------------------------------------------------
Total correction                          0.20555169 Eh     128.99 kcal/mol

--------
ENTHALPY
--------

The enthalpy is H = U + kB*T
                kB is Boltzmann's constant
Total free energy                 ...    -57.51411663 Eh
Thermal Enthalpy correction       ...      0.00094421 Eh       0.59 kcal/mol
-----------------------------------------------------------------------
Total Enthalpy                    ...    -57.51317242 Eh

Note: Only C1 symmetry has been detected, increase convergence thresholds
      if your molecule has a higher symmetry. Symmetry factor of 1.0 is
      used for the rotational entropy correction.

Note: Rotational entropy computed according to Herzberg
Infrared and Raman Spectra, Chapter V,1, Van Nostrand Reinhold, 1945
Point Group:  C1, Symmetry Number:   1
Rotational constants in cm-1:     0.024125     0.014150     0.010763

Vibrational entropy computed according to the QRRHO of S. Grimme
Chem.Eur.J. 2012 18 9955

-------
ENTROPY
-------

The entropy contributions are T*S = T*(S(el)+S(vib)+S(rot)+S(trans))
     S(el)   - electronic entropy
     S(vib)  - vibrational entropy
     S(rot)  - rotational entropy
     S(trans)- translational entropy
The entropies will be listed as multiplied by the temperature to get
units of energy

                             ****ORCA TERMINATED NORMALLY****
TOTAL RUN TIME: 0 days 0 hours 6 minutes 38 seconds 125 msec
